V -t * -v 1.0a5 -a 0
A -t * -n 1 -p 0 -o 0x7fffffff -c 30 -a 1
A -t * -h 1 -m 1073741823 -s 0
c -t * -i 1 -n blue
n -t * -a 4 -s 4 -S UP -v circle -c black -i black
n -t * -a 0 -s 0 -S UP -v circle -c black -i black
n -t * -a 5 -s 5 -S UP -v circle -c black -i black
n -t * -a 1 -s 1 -S UP -v circle -c black -i black
n -t * -a 2 -s 2 -S UP -v circle -c black -i black
n -t * -a 3 -s 3 -S UP -v circle -c black -i black
l -t * -s 0 -d 1 -S UP -r 3500000 -D 0.0050000000000000001 -c black -o right-up
l -t * -s 0 -d 2 -S UP -r 500000 -D 0.0050000000000000001 -c black -o right-down
l -t * -s 1 -d 4 -S UP -r 3500000 -D 0.0050000000000000001 -c black -o right
l -t * -s 2 -d 3 -S UP -r 500000 -D 0.0050000000000000001 -c black -o right
l -t * -s 4 -d 5 -S UP -r 3500000 -D 0.0050000000000000001 -c black -o right-down
l -t * -s 3 -d 5 -S UP -r 500000 -D 0.0050000000000000001 -c black -o right-up
+ -t 0.000169788487334637 -s 0 -d 1 -p rtProtoDV -e 6 -c 0 -i 0 -a 0 -x {0.2 1.1 -1 ------- null}
- -t 0.000169788487334637 -s 0 -d 1 -p rtProtoDV -e 6 -c 0 -i 0 -a 0 -x {0.2 1.1 -1 ------- null}
h -t 0.000169788487334637 -s 0 -d 1 -p rtProtoDV -e 6 -c 0 -i 0 -a 0 -x {0.2 1.1 -1 ------- null}
+ -t 0.000169788487334637 -s 0 -d 2 -p rtProtoDV -e 6 -c 0 -i 1 -a 0 -x {0.2 2.1 -1 ------- null}
- -t 0.000169788487334637 -s 0 -d 2 -p rtProtoDV -e 6 -c 0 -i 1 -a 0 -x {0.2 2.1 -1 ------- null}
h -t 0.000169788487334637 -s 0 -d 2 -p rtProtoDV -e 6 -c 0 -i 1 -a 0 -x {0.2 2.1 -1 ------- null}
r -t 0.00518350277304892 -s 0 -d 1 -p rtProtoDV -e 6 -c 0 -i 0 -a 0 -x {0.2 1.1 -1 ------- null}
+ -t 0.00518350277304892 -s 1 -d 0 -p rtProtoDV -e 6 -c 0 -i 2 -a 0 -x {1.1 0.2 -1 ------- null}
- -t 0.00518350277304892 -s 1 -d 0 -p rtProtoDV -e 6 -c 0 -i 2 -a 0 -x {1.1 0.2 -1 ------- null}
h -t 0.00518350277304892 -s 1 -d 0 -p rtProtoDV -e 6 -c 0 -i 2 -a 0 -x {1.1 0.2 -1 ------- null}
+ -t 0.00518350277304892 -s 1 -d 4 -p rtProtoDV -e 6 -c 0 -i 3 -a 0 -x {1.1 4.2 -1 ------- null}
- -t 0.00518350277304892 -s 1 -d 4 -p rtProtoDV -e 6 -c 0 -i 3 -a 0 -x {1.1 4.2 -1 ------- null}
h -t 0.00518350277304892 -s 1 -d 4 -p rtProtoDV -e 6 -c 0 -i 3 -a 0 -x {1.1 4.2 -1 ------- null}
r -t 0.00526578848733464 -s 0 -d 2 -p rtProtoDV -e 6 -c 0 -i 1 -a 0 -x {0.2 2.1 -1 ------- null}
+ -t 0.00526578848733464 -s 2 -d 0 -p rtProtoDV -e 6 -c 0 -i 4 -a 0 -x {2.1 0.2 -1 ------- null}
- -t 0.00526578848733464 -s 2 -d 0 -p rtProtoDV -e 6 -c 0 -i 4 -a 0 -x {2.1 0.2 -1 ------- null}
h -t 0.00526578848733464 -s 2 -d 0 -p rtProtoDV -e 6 -c 0 -i 4 -a 0 -x {2.1 0.2 -1 ------- null}
+ -t 0.00526578848733464 -s 2 -d 3 -p rtProtoDV -e 6 -c 0 -i 5 -a 0 -x {2.1 3.1 -1 ------- null}
- -t 0.00526578848733464 -s 2 -d 3 -p rtProtoDV -e 6 -c 0 -i 5 -a 0 -x {2.1 3.1 -1 ------- null}
h -t 0.00526578848733464 -s 2 -d 3 -p rtProtoDV -e 6 -c 0 -i 5 -a 0 -x {2.1 3.1 -1 ------- null}
+ -t 0.00710233021858257 -s 2 -d 0 -p rtProtoDV -e 6 -c 0 -i 6 -a 0 -x {2.1 0.2 -1 ------- null}
- -t 0.00710233021858257 -s 2 -d 0 -p rtProtoDV -e 6 -c 0 -i 6 -a 0 -x {2.1 0.2 -1 ------- null}
h -t 0.00710233021858257 -s 2 -d 0 -p rtProtoDV -e 6 -c 0 -i 6 -a 0 -x {2.1 0.2 -1 ------- null}
+ -t 0.00710233021858257 -s 2 -d 3 -p rtProtoDV -e 6 -c 0 -i 7 -a 0 -x {2.1 3.1 -1 ------- null}
- -t 0.00710233021858257 -s 2 -d 3 -p rtProtoDV -e 6 -c 0 -i 7 -a 0 -x {2.1 3.1 -1 ------- null}
h -t 0.00710233021858257 -s 2 -d 3 -p rtProtoDV -e 6 -c 0 -i 7 -a 0 -x {2.1 3.1 -1 ------- null}
r -t 0.0101972170587632 -s 1 -d 0 -p rtProtoDV -e 6 -c 0 -i 2 -a 0 -x {1.1 0.2 -1 ------- null}
+ -t 0.0101972170587632 -s 0 -d 1 -p rtProtoDV -e 6 -c 0 -i 8 -a 0 -x {0.2 1.1 -1 ------- null}
- -t 0.0101972170587632 -s 0 -d 1 -p rtProtoDV -e 6 -c 0 -i 8 -a 0 -x {0.2 1.1 -1 ------- null}
h -t 0.0101972170587632 -s 0 -d 1 -p rtProtoDV -e 6 -c 0 -i 8 -a 0 -x {0.2 1.1 -1 ------- null}
+ -t 0.0101972170587632 -s 0 -d 2 -p rtProtoDV -e 6 -c 0 -i 9 -a 0 -x {0.2 2.1 -1 ------- null}
- -t 0.0101972170587632 -s 0 -d 2 -p rtProtoDV -e 6 -c 0 -i 9 -a 0 -x {0.2 2.1 -1 ------- null}
h -t 0.0101972170587632 -s 0 -d 2 -p rtProtoDV -e 6 -c 0 -i 9 -a 0 -x {0.2 2.1 -1 ------- null}
r -t 0.0101972170587632 -s 1 -d 4 -p rtProtoDV -e 6 -c 0 -i 3 -a 0 -x {1.1 4.2 -1 ------- null}
+ -t 0.0101972170587632 -s 4 -d 1 -p rtProtoDV -e 6 -c 0 -i 10 -a 0 -x {4.2 1.1 -1 ------- null}
- -t 0.0101972170587632 -s 4 -d 1 -p rtProtoDV -e 6 -c 0 -i 10 -a 0 -x {4.2 1.1 -1 ------- null}
h -t 0.0101972170587632 -s 4 -d 1 -p rtProtoDV -e 6 -c 0 -i 10 -a 0 -x {4.2 1.1 -1 ------- null}
+ -t 0.0101972170587632 -s 4 -d 5 -p rtProtoDV -e 6 -c 0 -i 11 -a 0 -x {4.2 5.1 -1 ------- null}
- -t 0.0101972170587632 -s 4 -d 5 -p rtProtoDV -e 6 -c 0 -i 11 -a 0 -x {4.2 5.1 -1 ------- null}
h -t 0.0101972170587632 -s 4 -d 5 -p rtProtoDV -e 6 -c 0 -i 11 -a 0 -x {4.2 5.1 -1 ------- null}
r -t 0.0103617884873346 -s 2 -d 0 -p rtProtoDV -e 6 -c 0 -i 4 -a 0 -x {2.1 0.2 -1 ------- null}
+ -t 0.0103617884873346 -s 0 -d 1 -p rtProtoDV -e 6 -c 0 -i 12 -a 0 -x {0.2 1.1 -1 ------- null}
- -t 0.0103617884873346 -s 0 -d 1 -p rtProtoDV -e 6 -c 0 -i 12 -a 0 -x {0.2 1.1 -1 ------- null}
h -t 0.0103617884873346 -s 0 -d 1 -p rtProtoDV -e 6 -c 0 -i 12 -a 0 -x {0.2 1.1 -1 ------- null}
+ -t 0.0103617884873346 -s 0 -d 2 -p rtProtoDV -e 6 -c 0 -i 13 -a 0 -x {0.2 2.1 -1 ------- null}
- -t 0.0103617884873346 -s 0 -d 2 -p rtProtoDV -e 6 -c 0 -i 13 -a 0 -x {0.2 2.1 -1 ------- null}
h -t 0.0103617884873346 -s 0 -d 2 -p rtProtoDV -e 6 -c 0 -i 13 -a 0 -x {0.2 2.1 -1 ------- null}
r -t 0.0103617884873346 -s 2 -d 3 -p rtProtoDV -e 6 -c 0 -i 5 -a 0 -x {2.1 3.1 -1 ------- null}
+ -t 0.0103617884873346 -s 3 -d 2 -p rtProtoDV -e 6 -c 0 -i 14 -a 0 -x {3.1 2.1 -1 ------- null}
- -t 0.0103617884873346 -s 3 -d 2 -p rtProtoDV -e 6 -c 0 -i 14 -a 0 -x {3.1 2.1 -1 ------- null}
h -t 0.0103617884873346 -s 3 -d 2 -p rtProtoDV -e 6 -c 0 -i 14 -a 0 -x {3.1 2.1 -1 ------- null}
+ -t 0.0103617884873346 -s 3 -d 5 -p rtProtoDV -e 6 -c 0 -i 15 -a 0 -x {3.1 5.1 -1 ------- null}
- -t 0.0103617884873346 -s 3 -d 5 -p rtProtoDV -e 6 -c 0 -i 15 -a 0 -x {3.1 5.1 -1 ------- null}
h -t 0.0103617884873346 -s 3 -d 5 -p rtProtoDV -e 6 -c 0 -i 15 -a 0 -x {3.1 5.1 -1 ------- null}
r -t 0.0121983302185826 -s 2 -d 0 -p rtProtoDV -e 6 -c 0 -i 6 -a 0 -x {2.1 0.2 -1 ------- null}
r -t 0.0121983302185826 -s 2 -d 3 -p rtProtoDV -e 6 -c 0 -i 7 -a 0 -x {2.1 3.1 -1 ------- null}
r -t 0.0152109313444775 -s 0 -d 1 -p rtProtoDV -e 6 -c 0 -i 8 -a 0 -x {0.2 1.1 -1 ------- null}
r -t 0.0152109313444775 -s 4 -d 1 -p rtProtoDV -e 6 -c 0 -i 10 -a 0 -x {4.2 1.1 -1 ------- null}
+ -t 0.0152109313444775 -s 1 -d 0 -p rtProtoDV -e 6 -c 0 -i 16 -a 0 -x {1.1 0.2 -1 ------- null}
- -t 0.0152109313444775 -s 1 -d 0 -p rtProtoDV -e 6 -c 0 -i 16 -a 0 -x {1.1 0.2 -1 ------- null}
h -t 0.0152109313444775 -s 1 -d 0 -p rtProtoDV -e 6 -c 0 -i 16 -a 0 -x {1.1 0.2 -1 ------- null}
+ -t 0.0152109313444775 -s 1 -d 4 -p rtProtoDV -e 6 -c 0 -i 17 -a 0 -x {1.1 4.2 -1 ------- null}
- -t 0.0152109313444775 -s 1 -d 4 -p rtProtoDV -e 6 -c 0 -i 17 -a 0 -x {1.1 4.2 -1 ------- null}
h -t 0.0152109313444775 -s 1 -d 4 -p rtProtoDV -e 6 -c 0 -i 17 -a 0 -x {1.1 4.2 -1 ------- null}
r -t 0.0152109313444775 -s 4 -d 5 -p rtProtoDV -e 6 -c 0 -i 11 -a 0 -x {4.2 5.1 -1 ------- null}
+ -t 0.0152109313444775 -s 5 -d 3 -p rtProtoDV -e 6 -c 0 -i 18 -a 0 -x {5.1 3.1 -1 ------- null}
- -t 0.0152109313444775 -s 5 -d 3 -p rtProtoDV -e 6 -c 0 -i 18 -a 0 -x {5.1 3.1 -1 ------- null}
h -t 0.0152109313444775 -s 5 -d 3 -p rtProtoDV -e 6 -c 0 -i 18 -a 0 -x {5.1 3.1 -1 ------- null}
+ -t 0.0152109313444775 -s 5 -d 4 -p rtProtoDV -e 6 -c 0 -i 19 -a 0 -x {5.1 4.2 -1 ------- null}
- -t 0.0152109313444775 -s 5 -d 4 -p rtProtoDV -e 6 -c 0 -i 19 -a 0 -x {5.1 4.2 -1 ------- null}
h -t 0.0152109313444775 -s 5 -d 4 -p rtProtoDV -e 6 -c 0 -i 19 -a 0 -x {5.1 4.2 -1 ------- null}
r -t 0.0152932170587632 -s 0 -d 2 -p rtProtoDV -e 6 -c 0 -i 9 -a 0 -x {0.2 2.1 -1 ------- null}
+ -t 0.0152932170587632 -s 2 -d 0 -p rtProtoDV -e 6 -c 0 -i 20 -a 0 -x {2.1 0.2 -1 ------- null}
- -t 0.0152932170587632 -s 2 -d 0 -p rtProtoDV -e 6 -c 0 -i 20 -a 0 -x {2.1 0.2 -1 ------- null}
h -t 0.0152932170587632 -s 2 -d 0 -p rtProtoDV -e 6 -c 0 -i 20 -a 0 -x {2.1 0.2 -1 ------- null}
+ -t 0.0152932170587632 -s 2 -d 3 -p rtProtoDV -e 6 -c 0 -i 21 -a 0 -x {2.1 3.1 -1 ------- null}
- -t 0.0152932170587632 -s 2 -d 3 -p rtProtoDV -e 6 -c 0 -i 21 -a 0 -x {2.1 3.1 -1 ------- null}
h -t 0.0152932170587632 -s 2 -d 3 -p rtProtoDV -e 6 -c 0 -i 21 -a 0 -x {2.1 3.1 -1 ------- null}
r -t 0.0153755027730489 -s 0 -d 1 -p rtProtoDV -e 6 -c 0 -i 12 -a 0 -x {0.2 1.1 -1 ------- null}
+ -t 0.0153755027730489 -s 1 -d 0 -p rtProtoDV -e 6 -c 0 -i 22 -a 0 -x {1.1 0.2 -1 ------- null}
- -t 0.0153755027730489 -s 1 -d 0 -p rtProtoDV -e 6 -c 0 -i 22 -a 0 -x {1.1 0.2 -1 ------- null}
h -t 0.0153755027730489 -s 1 -d 0 -p rtProtoDV -e 6 -c 0 -i 22 -a 0 -x {1.1 0.2 -1 ------- null}
+ -t 0.0153755027730489 -s 1 -d 4 -p rtProtoDV -e 6 -c 0 -i 23 -a 0 -x {1.1 4.2 -1 ------- null}
- -t 0.0153755027730489 -s 1 -d 4 -p rtProtoDV -e 6 -c 0 -i 23 -a 0 -x {1.1 4.2 -1 ------- null}
h -t 0.0153755027730489 -s 1 -d 4 -p rtProtoDV -e 6 -c 0 -i 23 -a 0 -x {1.1 4.2 -1 ------- null}
r -t 0.0154577884873346 -s 0 -d 2 -p rtProtoDV -e 6 -c 0 -i 13 -a 0 -x {0.2 2.1 -1 ------- null}
r -t 0.0154577884873346 -s 3 -d 2 -p rtProtoDV -e 6 -c 0 -i 14 -a 0 -x {3.1 2.1 -1 ------- null}
+ -t 0.0154577884873346 -s 2 -d 0 -p rtProtoDV -e 6 -c 0 -i 24 -a 0 -x {2.1 0.2 -1 ------- null}
- -t 0.0154577884873346 -s 2 -d 0 -p rtProtoDV -e 6 -c 0 -i 24 -a 0 -x {2.1 0.2 -1 ------- null}
h -t 0.0154577884873346 -s 2 -d 0 -p rtProtoDV -e 6 -c 0 -i 24 -a 0 -x {2.1 0.2 -1 ------- null}
+ -t 0.0154577884873346 -s 2 -d 3 -p rtProtoDV -e 6 -c 0 -i 25 -a 0 -x {2.1 3.1 -1 ------- null}
- -t 0.0154577884873346 -s 2 -d 3 -p rtProtoDV -e 6 -c 0 -i 25 -a 0 -x {2.1 3.1 -1 ------- null}
h -t 0.0154577884873346 -s 2 -d 3 -p rtProtoDV -e 6 -c 0 -i 25 -a 0 -x {2.1 3.1 -1 ------- null}
r -t 0.0154577884873346 -s 3 -d 5 -p rtProtoDV -e 6 -c 0 -i 15 -a 0 -x {3.1 5.1 -1 ------- null}
+ -t 0.0154577884873346 -s 5 -d 3 -p rtProtoDV -e 6 -c 0 -i 26 -a 0 -x {5.1 3.1 -1 ------- null}
- -t 0.0154577884873346 -s 5 -d 3 -p rtProtoDV -e 6 -c 0 -i 26 -a 0 -x {5.1 3.1 -1 ------- null}
h -t 0.0154577884873346 -s 5 -d 3 -p rtProtoDV -e 6 -c 0 -i 26 -a 0 -x {5.1 3.1 -1 ------- null}
+ -t 0.0154577884873346 -s 5 -d 4 -p rtProtoDV -e 6 -c 0 -i 27 -a 0 -x {5.1 4.2 -1 ------- null}
- -t 0.0154577884873346 -s 5 -d 4 -p rtProtoDV -e 6 -c 0 -i 27 -a 0 -x {5.1 4.2 -1 ------- null}
h -t 0.0154577884873346 -s 5 -d 4 -p rtProtoDV -e 6 -c 0 -i 27 -a 0 -x {5.1 4.2 -1 ------- null}
r -t 0.0202246456301918 -s 1 -d 0 -p rtProtoDV -e 6 -c 0 -i 16 -a 0 -x {1.1 0.2 -1 ------- null}
+ -t 0.0202246456301918 -s 0 -d 1 -p rtProtoDV -e 6 -c 0 -i 28 -a 0 -x {0.2 1.1 -1 ------- null}
- -t 0.0202246456301918 -s 0 -d 1 -p rtProtoDV -e 6 -c 0 -i 28 -a 0 -x {0.2 1.1 -1 ------- null}
h -t 0.0202246456301918 -s 0 -d 1 -p rtProtoDV -e 6 -c 0 -i 28 -a 0 -x {0.2 1.1 -1 ------- null}
+ -t 0.0202246456301918 -s 0 -d 2 -p rtProtoDV -e 6 -c 0 -i 29 -a 0 -x {0.2 2.1 -1 ------- null}
- -t 0.0202246456301918 -s 0 -d 2 -p rtProtoDV -e 6 -c 0 -i 29 -a 0 -x {0.2 2.1 -1 ------- null}
h -t 0.0202246456301918 -s 0 -d 2 -p rtProtoDV -e 6 -c 0 -i 29 -a 0 -x {0.2 2.1 -1 ------- null}
r -t 0.0202246456301918 -s 1 -d 4 -p rtProtoDV -e 6 -c 0 -i 17 -a 0 -x {1.1 4.2 -1 ------- null}
r -t 0.0202246456301918 -s 5 -d 4 -p rtProtoDV -e 6 -c 0 -i 19 -a 0 -x {5.1 4.2 -1 ------- null}
+ -t 0.0202246456301918 -s 4 -d 1 -p rtProtoDV -e 6 -c 0 -i 30 -a 0 -x {4.2 1.1 -1 ------- null}
- -t 0.0202246456301918 -s 4 -d 1 -p rtProtoDV -e 6 -c 0 -i 30 -a 0 -x {4.2 1.1 -1 ------- null}
h -t 0.0202246456301918 -s 4 -d 1 -p rtProtoDV -e 6 -c 0 -i 30 -a 0 -x {4.2 1.1 -1 ------- null}
+ -t 0.0202246456301918 -s 4 -d 5 -p rtProtoDV -e 6 -c 0 -i 31 -a 0 -x {4.2 5.1 -1 ------- null}
- -t 0.0202246456301918 -s 4 -d 5 -p rtProtoDV -e 6 -c 0 -i 31 -a 0 -x {4.2 5.1 -1 ------- null}
h -t 0.0202246456301918 -s 4 -d 5 -p rtProtoDV -e 6 -c 0 -i 31 -a 0 -x {4.2 5.1 -1 ------- null}
r -t 0.0203069313444775 -s 5 -d 3 -p rtProtoDV -e 6 -c 0 -i 18 -a 0 -x {5.1 3.1 -1 ------- null}
+ -t 0.0203069313444775 -s 3 -d 2 -p rtProtoDV -e 6 -c 0 -i 32 -a 0 -x {3.1 2.1 -1 ------- null}
- -t 0.0203069313444775 -s 3 -d 2 -p rtProtoDV -e 6 -c 0 -i 32 -a 0 -x {3.1 2.1 -1 ------- null}
h -t 0.0203069313444775 -s 3 -d 2 -p rtProtoDV -e 6 -c 0 -i 32 -a 0 -x {3.1 2.1 -1 ------- null}
+ -t 0.0203069313444775 -s 3 -d 5 -p rtProtoDV -e 6 -c 0 -i 33 -a 0 -x {3.1 5.1 -1 ------- null}
- -t 0.0203069313444775 -s 3 -d 5 -p rtProtoDV -e 6 -c 0 -i 33 -a 0 -x {3.1 5.1 -1 ------- null}
h -t 0.0203069313444775 -s 3 -d 5 -p rtProtoDV -e 6 -c 0 -i 33 -a 0 -x {3.1 5.1 -1 ------- null}
r -t 0.0203892170587632 -s 2 -d 0 -p rtProtoDV -e 6 -c 0 -i 20 -a 0 -x {2.1 0.2 -1 ------- null}
r -t 0.0203892170587632 -s 2 -d 3 -p rtProtoDV -e 6 -c 0 -i 21 -a 0 -x {2.1 3.1 -1 ------- null}
r -t 0.0203892170587632 -s 1 -d 0 -p rtProtoDV -e 6 -c 0 -i 22 -a 0 -x {1.1 0.2 -1 ------- null}
r -t 0.0203892170587632 -s 1 -d 4 -p rtProtoDV -e 6 -c 0 -i 23 -a 0 -x {1.1 4.2 -1 ------- null}
r -t 0.0204715027730489 -s 5 -d 4 -p rtProtoDV -e 6 -c 0 -i 27 -a 0 -x {5.1 4.2 -1 ------- null}
r -t 0.0205537884873346 -s 2 -d 0 -p rtProtoDV -e 6 -c 0 -i 24 -a 0 -x {2.1 0.2 -1 ------- null}
r -t 0.0205537884873346 -s 2 -d 3 -p rtProtoDV -e 6 -c 0 -i 25 -a 0 -x {2.1 3.1 -1 ------- null}
r -t 0.0205537884873346 -s 5 -d 3 -p rtProtoDV -e 6 -c 0 -i 26 -a 0 -x {5.1 3.1 -1 ------- null}
r -t 0.0252383599159061 -s 0 -d 1 -p rtProtoDV -e 6 -c 0 -i 28 -a 0 -x {0.2 1.1 -1 ------- null}
r -t 0.0252383599159061 -s 4 -d 1 -p rtProtoDV -e 6 -c 0 -i 30 -a 0 -x {4.2 1.1 -1 ------- null}
r -t 0.0252383599159061 -s 4 -d 5 -p rtProtoDV -e 6 -c 0 -i 31 -a 0 -x {4.2 5.1 -1 ------- null}
r -t 0.0253206456301918 -s 0 -d 2 -p rtProtoDV -e 6 -c 0 -i 29 -a 0 -x {0.2 2.1 -1 ------- null}
r -t 0.0254029313444775 -s 3 -d 2 -p rtProtoDV -e 6 -c 0 -i 32 -a 0 -x {3.1 2.1 -1 ------- null}
r -t 0.0254029313444775 -s 3 -d 5 -p rtProtoDV -e 6 -c 0 -i 33 -a 0 -x {3.1 5.1 -1 ------- null}
+ -t 0.04406133552271 -s 3 -d 2 -p rtProtoDV -e 6 -c 0 -i 34 -a 0 -x {3.1 2.1 -1 ------- null}
- -t 0.04406133552271 -s 3 -d 2 -p rtProtoDV -e 6 -c 0 -i 34 -a 0 -x {3.1 2.1 -1 ------- null}
h -t 0.04406133552271 -s 3 -d 2 -p rtProtoDV -e 6 -c 0 -i 34 -a 0 -x {3.1 2.1 -1 ------- null}
+ -t 0.04406133552271 -s 3 -d 5 -p rtProtoDV -e 6 -c 0 -i 35 -a 0 -x {3.1 5.1 -1 ------- null}
- -t 0.04406133552271 -s 3 -d 5 -p rtProtoDV -e 6 -c 0 -i 35 -a 0 -x {3.1 5.1 -1 ------- null}
h -t 0.04406133552271 -s 3 -d 5 -p rtProtoDV -e 6 -c 0 -i 35 -a 0 -x {3.1 5.1 -1 ------- null}
r -t 0.04915733552271 -s 3 -d 2 -p rtProtoDV -e 6 -c 0 -i 34 -a 0 -x {3.1 2.1 -1 ------- null}
r -t 0.04915733552271 -s 3 -d 5 -p rtProtoDV -e 6 -c 0 -i 35 -a 0 -x {3.1 5.1 -1 ------- null}
+ -t 0.1 -s 0 -d 1 -p tcp -e 40 -c 1 -i 36 -a 1 -x {0.0 4.0 0 ------- null}
- -t 0.1 -s 0 -d 1 -p tcp -e 40 -c 1 -i 36 -a 1 -x {0.0 4.0 0 ------- null}
h -t 0.1 -s 0 -d 1 -p tcp -e 40 -c 1 -i 36 -a 1 -x {0.0 4.0 -1 ------- null}
r -t 0.105091428571429 -s 0 -d 1 -p tcp -e 40 -c 1 -i 36 -a 1 -x {0.0 4.0 0 ------- null}
+ -t 0.105091428571429 -s 1 -d 4 -p tcp -e 40 -c 1 -i 36 -a 1 -x {0.0 4.0 0 ------- null}
- -t 0.105091428571429 -s 1 -d 4 -p tcp -e 40 -c 1 -i 36 -a 1 -x {0.0 4.0 0 ------- null}
h -t 0.105091428571429 -s 1 -d 4 -p tcp -e 40 -c 1 -i 36 -a 1 -x {0.0 4.0 -1 ------- null}
r -t 0.110182857142857 -s 1 -d 4 -p tcp -e 40 -c 1 -i 36 -a 1 -x {0.0 4.0 0 ------- null}
+ -t 0.110182857142857 -s 4 -d 1 -p ack -e 40 -c 1 -i 37 -a 1 -x {4.0 0.0 0 ------- null}
- -t 0.110182857142857 -s 4 -d 1 -p ack -e 40 -c 1 -i 37 -a 1 -x {4.0 0.0 0 ------- null}
h -t 0.110182857142857 -s 4 -d 1 -p ack -e 40 -c 1 -i 37 -a 1 -x {4.0 0.0 -1 ------- null}
r -t 0.115274285714286 -s 4 -d 1 -p ack -e 40 -c 1 -i 37 -a 1 -x {4.0 0.0 0 ------- null}
+ -t 0.115274285714286 -s 1 -d 0 -p ack -e 40 -c 1 -i 37 -a 1 -x {4.0 0.0 0 ------- null}
- -t 0.115274285714286 -s 1 -d 0 -p ack -e 40 -c 1 -i 37 -a 1 -x {4.0 0.0 0 ------- null}
h -t 0.115274285714286 -s 1 -d 0 -p ack -e 40 -c 1 -i 37 -a 1 -x {4.0 0.0 -1 ------- null}
r -t 0.120365714285714 -s 1 -d 0 -p ack -e 40 -c 1 -i 37 -a 1 -x {4.0 0.0 0 ------- null}
+ -t 0.120365714285714 -s 0 -d 1 -p tcp -e 1040 -c 1 -i 38 -a 1 -x {0.0 4.0 1 ------- null}
- -t 0.120365714285714 -s 0 -d 1 -p tcp -e 1040 -c 1 -i 38 -a 1 -x {0.0 4.0 1 ------- null}
h -t 0.120365714285714 -s 0 -d 1 -p tcp -e 1040 -c 1 -i 38 -a 1 -x {0.0 4.0 -1 ------- null}
+ -t 0.120365714285714 -s 0 -d 1 -p tcp -e 1040 -c 1 -i 39 -a 1 -x {0.0 4.0 2 ------- null}
- -t 0.122742857142857 -s 0 -d 1 -p tcp -e 1040 -c 1 -i 39 -a 1 -x {0.0 4.0 2 ------- null}
h -t 0.122742857142857 -s 0 -d 1 -p tcp -e 1040 -c 1 -i 39 -a 1 -x {0.0 4.0 -1 ------- null}
r -t 0.127742857142857 -s 0 -d 1 -p tcp -e 1040 -c 1 -i 38 -a 1 -x {0.0 4.0 1 ------- null}
+ -t 0.127742857142857 -s 1 -d 4 -p tcp -e 1040 -c 1 -i 38 -a 1 -x {0.0 4.0 1 ------- null}
- -t 0.127742857142857 -s 1 -d 4 -p tcp -e 1040 -c 1 -i 38 -a 1 -x {0.0 4.0 1 ------- null}
h -t 0.127742857142857 -s 1 -d 4 -p tcp -e 1040 -c 1 -i 38 -a 1 -x {0.0 4.0 -1 ------- null}
r -t 0.13012 -s 0 -d 1 -p tcp -e 1040 -c 1 -i 39 -a 1 -x {0.0 4.0 2 ------- null}
+ -t 0.13012 -s 1 -d 4 -p tcp -e 1040 -c 1 -i 39 -a 1 -x {0.0 4.0 2 ------- null}
- -t 0.13012 -s 1 -d 4 -p tcp -e 1040 -c 1 -i 39 -a 1 -x {0.0 4.0 2 ------- null}
h -t 0.13012 -s 1 -d 4 -p tcp -e 1040 -c 1 -i 39 -a 1 -x {0.0 4.0 -1 ------- null}
r -t 0.13512 -s 1 -d 4 -p tcp -e 1040 -c 1 -i 38 -a 1 -x {0.0 4.0 1 ------- null}
+ -t 0.13512 -s 4 -d 1 -p ack -e 40 -c 1 -i 40 -a 1 -x {4.0 0.0 1 ------- null}
- -t 0.13512 -s 4 -d 1 -p ack -e 40 -c 1 -i 40 -a 1 -x {4.0 0.0 1 ------- null}
h -t 0.13512 -s 4 -d 1 -p ack -e 40 -c 1 -i 40 -a 1 -x {4.0 0.0 -1 ------- null}
r -t 0.137497142857143 -s 1 -d 4 -p tcp -e 1040 -c 1 -i 39 -a 1 -x {0.0 4.0 2 ------- null}
+ -t 0.137497142857143 -s 4 -d 1 -p ack -e 40 -c 1 -i 41 -a 1 -x {4.0 0.0 2 ------- null}
- -t 0.137497142857143 -s 4 -d 1 -p ack -e 40 -c 1 -i 41 -a 1 -x {4.0 0.0 2 ------- null}
h -t 0.137497142857143 -s 4 -d 1 -p ack -e 40 -c 1 -i 41 -a 1 -x {4.0 0.0 -1 ------- null}
r -t 0.140211428571429 -s 4 -d 1 -p ack -e 40 -c 1 -i 40 -a 1 -x {4.0 0.0 1 ------- null}
+ -t 0.140211428571429 -s 1 -d 0 -p ack -e 40 -c 1 -i 40 -a 1 -x {4.0 0.0 1 ------- null}
- -t 0.140211428571429 -s 1 -d 0 -p ack -e 40 -c 1 -i 40 -a 1 -x {4.0 0.0 1 ------- null}
h -t 0.140211428571429 -s 1 -d 0 -p ack -e 40 -c 1 -i 40 -a 1 -x {4.0 0.0 -1 ------- null}
r -t 0.142588571428571 -s 4 -d 1 -p ack -e 40 -c 1 -i 41 -a 1 -x {4.0 0.0 2 ------- null}
+ -t 0.142588571428571 -s 1 -d 0 -p ack -e 40 -c 1 -i 41 -a 1 -x {4.0 0.0 2 ------- null}
- -t 0.142588571428571 -s 1 -d 0 -p ack -e 40 -c 1 -i 41 -a 1 -x {4.0 0.0 2 ------- null}
h -t 0.142588571428571 -s 1 -d 0 -p ack -e 40 -c 1 -i 41 -a 1 -x {4.0 0.0 -1 ------- null}
r -t 0.145302857142857 -s 1 -d 0 -p ack -e 40 -c 1 -i 40 -a 1 -x {4.0 0.0 1 ------- null}
+ -t 0.145302857142857 -s 0 -d 1 -p tcp -e 1040 -c 1 -i 42 -a 1 -x {0.0 4.0 3 ------- null}
- -t 0.145302857142857 -s 0 -d 1 -p tcp -e 1040 -c 1 -i 42 -a 1 -x {0.0 4.0 3 ------- null}
h -t 0.145302857142857 -s 0 -d 1 -p tcp -e 1040 -c 1 -i 42 -a 1 -x {0.0 4.0 -1 ------- null}
+ -t 0.145302857142857 -s 0 -d 1 -p tcp -e 1040 -c 1 -i 43 -a 1 -x {0.0 4.0 4 ------- null}
r -t 0.14768 -s 1 -d 0 -p ack -e 40 -c 1 -i 41 -a 1 -x {4.0 0.0 2 ------- null}
+ -t 0.14768 -s 0 -d 1 -p tcp -e 1040 -c 1 -i 44 -a 1 -x {0.0 4.0 5 ------- null}
+ -t 0.14768 -s 0 -d 1 -p tcp -e 1040 -c 1 -i 45 -a 1 -x {0.0 4.0 6 ------- null}
- -t 0.14768 -s 0 -d 1 -p tcp -e 1040 -c 1 -i 43 -a 1 -x {0.0 4.0 4 ------- null}
h -t 0.14768 -s 0 -d 1 -p tcp -e 1040 -c 1 -i 43 -a 1 -x {0.0 4.0 -1 ------- null}
- -t 0.150057142857143 -s 0 -d 1 -p tcp -e 1040 -c 1 -i 44 -a 1 -x {0.0 4.0 5 ------- null}
h -t 0.150057142857143 -s 0 -d 1 -p tcp -e 1040 -c 1 -i 44 -a 1 -x {0.0 4.0 -1 ------- null}
- -t 0.152434285714286 -s 0 -d 1 -p tcp -e 1040 -c 1 -i 45 -a 1 -x {0.0 4.0 6 ------- null}
h -t 0.152434285714286 -s 0 -d 1 -p tcp -e 1040 -c 1 -i 45 -a 1 -x {0.0 4.0 -1 ------- null}
r -t 0.15268 -s 0 -d 1 -p tcp -e 1040 -c 1 -i 42 -a 1 -x {0.0 4.0 3 ------- null}
+ -t 0.15268 -s 1 -d 4 -p tcp -e 1040 -c 1 -i 42 -a 1 -x {0.0 4.0 3 ------- null}
- -t 0.15268 -s 1 -d 4 -p tcp -e 1040 -c 1 -i 42 -a 1 -x {0.0 4.0 3 ------- null}
h -t 0.15268 -s 1 -d 4 -p tcp -e 1040 -c 1 -i 42 -a 1 -x {0.0 4.0 -1 ------- null}
r -t 0.155057142857143 -s 0 -d 1 -p tcp -e 1040 -c 1 -i 43 -a 1 -x {0.0 4.0 4 ------- null}
+ -t 0.155057142857143 -s 1 -d 4 -p tcp -e 1040 -c 1 -i 43 -a 1 -x {0.0 4.0 4 ------- null}
- -t 0.155057142857143 -s 1 -d 4 -p tcp -e 1040 -c 1 -i 43 -a 1 -x {0.0 4.0 4 ------- null}
h -t 0.155057142857143 -s 1 -d 4 -p tcp -e 1040 -c 1 -i 43 -a 1 -x {0.0 4.0 -1 ------- null}
r -t 0.157434285714286 -s 0 -d 1 -p tcp -e 1040 -c 1 -i 44 -a 1 -x {0.0 4.0 5 ------- null}
+ -t 0.157434285714286 -s 1 -d 4 -p tcp -e 1040 -c 1 -i 44 -a 1 -x {0.0 4.0 5 ------- null}
- -t 0.157434285714286 -s 1 -d 4 -p tcp -e 1040 -c 1 -i 44 -a 1 -x {0.0 4.0 5 ------- null}
h -t 0.157434285714286 -s 1 -d 4 -p tcp -e 1040 -c 1 -i 44 -a 1 -x {0.0 4.0 -1 ------- null}
r -t 0.159811428571429 -s 0 -d 1 -p tcp -e 1040 -c 1 -i 45 -a 1 -x {0.0 4.0 6 ------- null}
+ -t 0.159811428571429 -s 1 -d 4 -p tcp -e 1040 -c 1 -i 45 -a 1 -x {0.0 4.0 6 ------- null}
- -t 0.159811428571429 -s 1 -d 4 -p tcp -e 1040 -c 1 -i 45 -a 1 -x {0.0 4.0 6 ------- null}
h -t 0.159811428571429 -s 1 -d 4 -p tcp -e 1040 -c 1 -i 45 -a 1 -x {0.0 4.0 -1 ------- null}
r -t 0.160057142857143 -s 1 -d 4 -p tcp -e 1040 -c 1 -i 42 -a 1 -x {0.0 4.0 3 ------- null}
+ -t 0.160057142857143 -s 4 -d 1 -p ack -e 40 -c 1 -i 46 -a 1 -x {4.0 0.0 3 ------- null}
- -t 0.160057142857143 -s 4 -d 1 -p ack -e 40 -c 1 -i 46 -a 1 -x {4.0 0.0 3 ------- null}
h -t 0.160057142857143 -s 4 -d 1 -p ack -e 40 -c 1 -i 46 -a 1 -x {4.0 0.0 -1 ------- null}
r -t 0.162434285714286 -s 1 -d 4 -p tcp -e 1040 -c 1 -i 43 -a 1 -x {0.0 4.0 4 ------- null}
+ -t 0.162434285714286 -s 4 -d 1 -p ack -e 40 -c 1 -i 47 -a 1 -x {4.0 0.0 4 ------- null}
- -t 0.162434285714286 -s 4 -d 1 -p ack -e 40 -c 1 -i 47 -a 1 -x {4.0 0.0 4 ------- null}
h -t 0.162434285714286 -s 4 -d 1 -p ack -e 40 -c 1 -i 47 -a 1 -x {4.0 0.0 -1 ------- null}
r -t 0.164811428571429 -s 1 -d 4 -p tcp -e 1040 -c 1 -i 44 -a 1 -x {0.0 4.0 5 ------- null}
+ -t 0.164811428571429 -s 4 -d 1 -p ack -e 40 -c 1 -i 48 -a 1 -x {4.0 0.0 5 ------- null}
- -t 0.164811428571429 -s 4 -d 1 -p ack -e 40 -c 1 -i 48 -a 1 -x {4.0 0.0 5 ------- null}
h -t 0.164811428571429 -s 4 -d 1 -p ack -e 40 -c 1 -i 48 -a 1 -x {4.0 0.0 -1 ------- null}
r -t 0.165148571428571 -s 4 -d 1 -p ack -e 40 -c 1 -i 46 -a 1 -x {4.0 0.0 3 ------- null}
+ -t 0.165148571428571 -s 1 -d 0 -p ack -e 40 -c 1 -i 46 -a 1 -x {4.0 0.0 3 ------- null}
- -t 0.165148571428571 -s 1 -d 0 -p ack -e 40 -c 1 -i 46 -a 1 -x {4.0 0.0 3 ------- null}
h -t 0.165148571428571 -s 1 -d 0 -p ack -e 40 -c 1 -i 46 -a 1 -x {4.0 0.0 -1 ------- null}
r -t 0.167188571428571 -s 1 -d 4 -p tcp -e 1040 -c 1 -i 45 -a 1 -x {0.0 4.0 6 ------- null}
+ -t 0.167188571428571 -s 4 -d 1 -p ack -e 40 -c 1 -i 49 -a 1 -x {4.0 0.0 6 ------- null}
- -t 0.167188571428571 -s 4 -d 1 -p ack -e 40 -c 1 -i 49 -a 1 -x {4.0 0.0 6 ------- null}
h -t 0.167188571428571 -s 4 -d 1 -p ack -e 40 -c 1 -i 49 -a 1 -x {4.0 0.0 -1 ------- null}
r -t 0.167525714285714 -s 4 -d 1 -p ack -e 40 -c 1 -i 47 -a 1 -x {4.0 0.0 4 ------- null}
+ -t 0.167525714285714 -s 1 -d 0 -p ack -e 40 -c 1 -i 47 -a 1 -x {4.0 0.0 4 ------- null}
- -t 0.167525714285714 -s 1 -d 0 -p ack -e 40 -c 1 -i 47 -a 1 -x {4.0 0.0 4 ------- null}
h -t 0.167525714285714 -s 1 -d 0 -p ack -e 40 -c 1 -i 47 -a 1 -x {4.0 0.0 -1 ------- null}
r -t 0.169902857142857 -s 4 -d 1 -p ack -e 40 -c 1 -i 48 -a 1 -x {4.0 0.0 5 ------- null}
+ -t 0.169902857142857 -s 1 -d 0 -p ack -e 40 -c 1 -i 48 -a 1 -x {4.0 0.0 5 ------- null}
- -t 0.169902857142857 -s 1 -d 0 -p ack -e 40 -c 1 -i 48 -a 1 -x {4.0 0.0 5 ------- null}
h -t 0.169902857142857 -s 1 -d 0 -p ack -e 40 -c 1 -i 48 -a 1 -x {4.0 0.0 -1 ------- null}
r -t 0.17024 -s 1 -d 0 -p ack -e 40 -c 1 -i 46 -a 1 -x {4.0 0.0 3 ------- null}
+ -t 0.17024 -s 0 -d 1 -p tcp -e 1040 -c 1 -i 50 -a 1 -x {0.0 4.0 7 ------- null}
- -t 0.17024 -s 0 -d 1 -p tcp -e 1040 -c 1 -i 50 -a 1 -x {0.0 4.0 7 ------- null}
h -t 0.17024 -s 0 -d 1 -p tcp -e 1040 -c 1 -i 50 -a 1 -x {0.0 4.0 -1 ------- null}
+ -t 0.17024 -s 0 -d 1 -p tcp -e 1040 -c 1 -i 51 -a 1 -x {0.0 4.0 8 ------- null}
r -t 0.17228 -s 4 -d 1 -p ack -e 40 -c 1 -i 49 -a 1 -x {4.0 0.0 6 ------- null}
+ -t 0.17228 -s 1 -d 0 -p ack -e 40 -c 1 -i 49 -a 1 -x {4.0 0.0 6 ------- null}
- -t 0.17228 -s 1 -d 0 -p ack -e 40 -c 1 -i 49 -a 1 -x {4.0 0.0 6 ------- null}
h -t 0.17228 -s 1 -d 0 -p ack -e 40 -c 1 -i 49 -a 1 -x {4.0 0.0 -1 ------- null}
r -t 0.172617142857143 -s 1 -d 0 -p ack -e 40 -c 1 -i 47 -a 1 -x {4.0 0.0 4 ------- null}
+ -t 0.172617142857143 -s 0 -d 1 -p tcp -e 1040 -c 1 -i 52 -a 1 -x {0.0 4.0 9 ------- null}
+ -t 0.172617142857143 -s 0 -d 1 -p tcp -e 1040 -c 1 -i 53 -a 1 -x {0.0 4.0 10 ------- null}
- -t 0.172617142857143 -s 0 -d 1 -p tcp -e 1040 -c 1 -i 51 -a 1 -x {0.0 4.0 8 ------- null}
h -t 0.172617142857143 -s 0 -d 1 -p tcp -e 1040 -c 1 -i 51 -a 1 -x {0.0 4.0 -1 ------- null}
r -t 0.174994285714286 -s 1 -d 0 -p ack -e 40 -c 1 -i 48 -a 1 -x {4.0 0.0 5 ------- null}
+ -t 0.174994285714286 -s 0 -d 1 -p tcp -e 1040 -c 1 -i 54 -a 1 -x {0.0 4.0 11 ------- null}
+ -t 0.174994285714286 -s 0 -d 1 -p tcp -e 1040 -c 1 -i 55 -a 1 -x {0.0 4.0 12 ------- null}
- -t 0.174994285714286 -s 0 -d 1 -p tcp -e 1040 -c 1 -i 52 -a 1 -x {0.0 4.0 9 ------- null}
h -t 0.174994285714286 -s 0 -d 1 -p tcp -e 1040 -c 1 -i 52 -a 1 -x {0.0 4.0 -1 ------- null}
r -t 0.177371428571429 -s 1 -d 0 -p ack -e 40 -c 1 -i 49 -a 1 -x {4.0 0.0 6 ------- null}
+ -t 0.177371428571429 -s 0 -d 1 -p tcp -e 1040 -c 1 -i 56 -a 1 -x {0.0 4.0 13 ------- null}
+ -t 0.177371428571429 -s 0 -d 1 -p tcp -e 1040 -c 1 -i 57 -a 1 -x {0.0 4.0 14 ------- null}
- -t 0.177371428571429 -s 0 -d 1 -p tcp -e 1040 -c 1 -i 53 -a 1 -x {0.0 4.0 10 ------- null}
h -t 0.177371428571429 -s 0 -d 1 -p tcp -e 1040 -c 1 -i 53 -a 1 -x {0.0 4.0 -1 ------- null}
r -t 0.177617142857143 -s 0 -d 1 -p tcp -e 1040 -c 1 -i 50 -a 1 -x {0.0 4.0 7 ------- null}
+ -t 0.177617142857143 -s 1 -d 4 -p tcp -e 1040 -c 1 -i 50 -a 1 -x {0.0 4.0 7 ------- null}
- -t 0.177617142857143 -s 1 -d 4 -p tcp -e 1040 -c 1 -i 50 -a 1 -x {0.0 4.0 7 ------- null}
h -t 0.177617142857143 -s 1 -d 4 -p tcp -e 1040 -c 1 -i 50 -a 1 -x {0.0 4.0 -1 ------- null}
- -t 0.179748571428571 -s 0 -d 1 -p tcp -e 1040 -c 1 -i 54 -a 1 -x {0.0 4.0 11 ------- null}
h -t 0.179748571428571 -s 0 -d 1 -p tcp -e 1040 -c 1 -i 54 -a 1 -x {0.0 4.0 -1 ------- null}
r -t 0.179994285714286 -s 0 -d 1 -p tcp -e 1040 -c 1 -i 51 -a 1 -x {0.0 4.0 8 ------- null}
+ -t 0.179994285714286 -s 1 -d 4 -p tcp -e 1040 -c 1 -i 51 -a 1 -x {0.0 4.0 8 ------- null}
- -t 0.179994285714286 -s 1 -d 4 -p tcp -e 1040 -c 1 -i 51 -a 1 -x {0.0 4.0 8 ------- null}
h -t 0.179994285714286 -s 1 -d 4 -p tcp -e 1040 -c 1 -i 51 -a 1 -x {0.0 4.0 -1 ------- null}
- -t 0.182125714285714 -s 0 -d 1 -p tcp -e 1040 -c 1 -i 55 -a 1 -x {0.0 4.0 12 ------- null}
h -t 0.182125714285714 -s 0 -d 1 -p tcp -e 1040 -c 1 -i 55 -a 1 -x {0.0 4.0 -1 ------- null}
r -t 0.182371428571429 -s 0 -d 1 -p tcp -e 1040 -c 1 -i 52 -a 1 -x {0.0 4.0 9 ------- null}
+ -t 0.182371428571429 -s 1 -d 4 -p tcp -e 1040 -c 1 -i 52 -a 1 -x {0.0 4.0 9 ------- null}
- -t 0.182371428571429 -s 1 -d 4 -p tcp -e 1040 -c 1 -i 52 -a 1 -x {0.0 4.0 9 ------- null}
h -t 0.182371428571429 -s 1 -d 4 -p tcp -e 1040 -c 1 -i 52 -a 1 -x {0.0 4.0 -1 ------- null}
- -t 0.184502857142857 -s 0 -d 1 -p tcp -e 1040 -c 1 -i 56 -a 1 -x {0.0 4.0 13 ------- null}
h -t 0.184502857142857 -s 0 -d 1 -p tcp -e 1040 -c 1 -i 56 -a 1 -x {0.0 4.0 -1 ------- null}
r -t 0.184748571428571 -s 0 -d 1 -p tcp -e 1040 -c 1 -i 53 -a 1 -x {0.0 4.0 10 ------- null}
+ -t 0.184748571428571 -s 1 -d 4 -p tcp -e 1040 -c 1 -i 53 -a 1 -x {0.0 4.0 10 ------- null}
- -t 0.184748571428571 -s 1 -d 4 -p tcp -e 1040 -c 1 -i 53 -a 1 -x {0.0 4.0 10 ------- null}
h -t 0.184748571428571 -s 1 -d 4 -p tcp -e 1040 -c 1 -i 53 -a 1 -x {0.0 4.0 -1 ------- null}
r -t 0.184994285714286 -s 1 -d 4 -p tcp -e 1040 -c 1 -i 50 -a 1 -x {0.0 4.0 7 ------- null}
+ -t 0.184994285714286 -s 4 -d 1 -p ack -e 40 -c 1 -i 58 -a 1 -x {4.0 0.0 7 ------- null}
- -t 0.184994285714286 -s 4 -d 1 -p ack -e 40 -c 1 -i 58 -a 1 -x {4.0 0.0 7 ------- null}
h -t 0.184994285714286 -s 4 -d 1 -p ack -e 40 -c 1 -i 58 -a 1 -x {4.0 0.0 -1 ------- null}
- -t 0.18688 -s 0 -d 1 -p tcp -e 1040 -c 1 -i 57 -a 1 -x {0.0 4.0 14 ------- null}
h -t 0.18688 -s 0 -d 1 -p tcp -e 1040 -c 1 -i 57 -a 1 -x {0.0 4.0 -1 ------- null}
r -t 0.187125714285714 -s 0 -d 1 -p tcp -e 1040 -c 1 -i 54 -a 1 -x {0.0 4.0 11 ------- null}
+ -t 0.187125714285714 -s 1 -d 4 -p tcp -e 1040 -c 1 -i 54 -a 1 -x {0.0 4.0 11 ------- null}
- -t 0.187125714285714 -s 1 -d 4 -p tcp -e 1040 -c 1 -i 54 -a 1 -x {0.0 4.0 11 ------- null}
h -t 0.187125714285714 -s 1 -d 4 -p tcp -e 1040 -c 1 -i 54 -a 1 -x {0.0 4.0 -1 ------- null}
r -t 0.187371428571429 -s 1 -d 4 -p tcp -e 1040 -c 1 -i 51 -a 1 -x {0.0 4.0 8 ------- null}
+ -t 0.187371428571429 -s 4 -d 1 -p ack -e 40 -c 1 -i 59 -a 1 -x {4.0 0.0 8 ------- null}
- -t 0.187371428571429 -s 4 -d 1 -p ack -e 40 -c 1 -i 59 -a 1 -x {4.0 0.0 8 ------- null}
h -t 0.187371428571429 -s 4 -d 1 -p ack -e 40 -c 1 -i 59 -a 1 -x {4.0 0.0 -1 ------- null}
r -t 0.189502857142857 -s 0 -d 1 -p tcp -e 1040 -c 1 -i 55 -a 1 -x {0.0 4.0 12 ------- null}
+ -t 0.189502857142857 -s 1 -d 4 -p tcp -e 1040 -c 1 -i 55 -a 1 -x {0.0 4.0 12 ------- null}
- -t 0.189502857142857 -s 1 -d 4 -p tcp -e 1040 -c 1 -i 55 -a 1 -x {0.0 4.0 12 ------- null}
h -t 0.189502857142857 -s 1 -d 4 -p tcp -e 1040 -c 1 -i 55 -a 1 -x {0.0 4.0 -1 ------- null}
r -t 0.189748571428571 -s 1 -d 4 -p tcp -e 1040 -c 1 -i 52 -a 1 -x {0.0 4.0 9 ------- null}