V -t * -v 1.0a5 -a 0
A -t * -n 1 -p 0 -o 0x7fffffff -c 30 -a 1
A -t * -h 1 -m 1073741823 -s 0
c -t * -i 1 -n blue
c -t * -i 2 -n red
n -t * -a 4 -s 4 -S UP -v circle -c black -i black
n -t * -a 0 -s 0 -S UP -v circle -c black -i black
n -t * -a 5 -s 5 -S UP -v circle -c black -i black
n -t * -a 1 -s 1 -S UP -v circle -c black -i black
n -t * -a 2 -s 2 -S UP -v circle -c black -i black
n -t * -a 3 -s 3 -S UP -v circle -c black -i black
l -t * -s 0 -d 2 -S UP -r 2000000 -D 0.002 -c black
l -t * -s 1 -d 2 -S UP -r 2000000 -D 0.002 -c black
l -t * -s 2 -d 3 -S UP -r 2000000 -D 0.002 -c black
l -t * -s 3 -d 4 -S UP -r 2000000 -D 0.002 -c black
l -t * -s 3 -d 5 -S UP -r 2000000 -D 0.002 -c black
+ -t 0.2 -s 0 -d 2 -p tcp -e 40 -c 1 -i 0 -a 1 -x {0.0 5.0 0 ------- null}
- -t 0.2 -s 0 -d 2 -p tcp -e 40 -c 1 -i 0 -a 1 -x {0.0 5.0 0 ------- null}
h -t 0.2 -s 0 -d 2 -p tcp -e 40 -c 1 -i 0 -a 1 -x {0.0 5.0 -1 ------- null}
r -t 0.20216 -s 0 -d 2 -p tcp -e 40 -c 1 -i 0 -a 1 -x {0.0 5.0 0 ------- null}
+ -t 0.20216 -s 2 -d 3 -p tcp -e 40 -c 1 -i 0 -a 1 -x {0.0 5.0 0 ------- null}
- -t 0.20216 -s 2 -d 3 -p tcp -e 40 -c 1 -i 0 -a 1 -x {0.0 5.0 0 ------- null}
h -t 0.20216 -s 2 -d 3 -p tcp -e 40 -c 1 -i 0 -a 1 -x {0.0 5.0 -1 ------- null}
r -t 0.20432 -s 2 -d 3 -p tcp -e 40 -c 1 -i 0 -a 1 -x {0.0 5.0 0 ------- null}
+ -t 0.20432 -s 3 -d 5 -p tcp -e 40 -c 1 -i 0 -a 1 -x {0.0 5.0 0 ------- null}
- -t 0.20432 -s 3 -d 5 -p tcp -e 40 -c 1 -i 0 -a 1 -x {0.0 5.0 0 ------- null}
h -t 0.20432 -s 3 -d 5 -p tcp -e 40 -c 1 -i 0 -a 1 -x {0.0 5.0 -1 ------- null}
r -t 0.20648 -s 3 -d 5 -p tcp -e 40 -c 1 -i 0 -a 1 -x {0.0 5.0 0 ------- null}
+ -t 0.20648 -s 5 -d 3 -p ack -e 40 -c 1 -i 1 -a 1 -x {5.0 0.0 0 ------- null}
- -t 0.20648 -s 5 -d 3 -p ack -e 40 -c 1 -i 1 -a 1 -x {5.0 0.0 0 ------- null}
h -t 0.20648 -s 5 -d 3 -p ack -e 40 -c 1 -i 1 -a 1 -x {5.0 0.0 -1 ------- null}
r -t 0.20864 -s 5 -d 3 -p ack -e 40 -c 1 -i 1 -a 1 -x {5.0 0.0 0 ------- null}
+ -t 0.20864 -s 3 -d 2 -p ack -e 40 -c 1 -i 1 -a 1 -x {5.0 0.0 0 ------- null}
- -t 0.20864 -s 3 -d 2 -p ack -e 40 -c 1 -i 1 -a 1 -x {5.0 0.0 0 ------- null}
h -t 0.20864 -s 3 -d 2 -p ack -e 40 -c 1 -i 1 -a 1 -x {5.0 0.0 -1 ------- null}
r -t 0.2108 -s 3 -d 2 -p ack -e 40 -c 1 -i 1 -a 1 -x {5.0 0.0 0 ------- null}
+ -t 0.2108 -s 2 -d 0 -p ack -e 40 -c 1 -i 1 -a 1 -x {5.0 0.0 0 ------- null}
- -t 0.2108 -s 2 -d 0 -p ack -e 40 -c 1 -i 1 -a 1 -x {5.0 0.0 0 ------- null}
h -t 0.2108 -s 2 -d 0 -p ack -e 40 -c 1 -i 1 -a 1 -x {5.0 0.0 -1 ------- null}
r -t 0.21296 -s 2 -d 0 -p ack -e 40 -c 1 -i 1 -a 1 -x {5.0 0.0 0 ------- null}
+ -t 0.21296 -s 0 -d 2 -p tcp -e 1040 -c 1 -i 2 -a 1 -x {0.0 5.0 1 ------- null}
- -t 0.21296 -s 0 -d 2 -p tcp -e 1040 -c 1 -i 2 -a 1 -x {0.0 5.0 1 ------- null}
h -t 0.21296 -s 0 -d 2 -p tcp -e 1040 -c 1 -i 2 -a 1 -x {0.0 5.0 -1 ------- null}
+ -t 0.21296 -s 0 -d 2 -p tcp -e 1040 -c 1 -i 3 -a 1 -x {0.0 5.0 2 ------- null}
- -t 0.21712 -s 0 -d 2 -p tcp -e 1040 -c 1 -i 3 -a 1 -x {0.0 5.0 2 ------- null}
h -t 0.21712 -s 0 -d 2 -p tcp -e 1040 -c 1 -i 3 -a 1 -x {0.0 5.0 -1 ------- null}
r -t 0.21912 -s 0 -d 2 -p tcp -e 1040 -c 1 -i 2 -a 1 -x {0.0 5.0 1 ------- null}
+ -t 0.21912 -s 2 -d 3 -p tcp -e 1040 -c 1 -i 2 -a 1 -x {0.0 5.0 1 ------- null}
- -t 0.21912 -s 2 -d 3 -p tcp -e 1040 -c 1 -i 2 -a 1 -x {0.0 5.0 1 ------- null}
h -t 0.21912 -s 2 -d 3 -p tcp -e 1040 -c 1 -i 2 -a 1 -x {0.0 5.0 -1 ------- null}
r -t 0.22328 -s 0 -d 2 -p tcp -e 1040 -c 1 -i 3 -a 1 -x {0.0 5.0 2 ------- null}
+ -t 0.22328 -s 2 -d 3 -p tcp -e 1040 -c 1 -i 3 -a 1 -x {0.0 5.0 2 ------- null}
- -t 0.22328 -s 2 -d 3 -p tcp -e 1040 -c 1 -i 3 -a 1 -x {0.0 5.0 2 ------- null}
h -t 0.22328 -s 2 -d 3 -p tcp -e 1040 -c 1 -i 3 -a 1 -x {0.0 5.0 -1 ------- null}
r -t 0.22528 -s 2 -d 3 -p tcp -e 1040 -c 1 -i 2 -a 1 -x {0.0 5.0 1 ------- null}
+ -t 0.22528 -s 3 -d 5 -p tcp -e 1040 -c 1 -i 2 -a 1 -x {0.0 5.0 1 ------- null}
- -t 0.22528 -s 3 -d 5 -p tcp -e 1040 -c 1 -i 2 -a 1 -x {0.0 5.0 1 ------- null}
h -t 0.22528 -s 3 -d 5 -p tcp -e 1040 -c 1 -i 2 -a 1 -x {0.0 5.0 -1 ------- null}
r -t 0.22944 -s 2 -d 3 -p tcp -e 1040 -c 1 -i 3 -a 1 -x {0.0 5.0 2 ------- null}
+ -t 0.22944 -s 3 -d 5 -p tcp -e 1040 -c 1 -i 3 -a 1 -x {0.0 5.0 2 ------- null}
- -t 0.22944 -s 3 -d 5 -p tcp -e 1040 -c 1 -i 3 -a 1 -x {0.0 5.0 2 ------- null}
h -t 0.22944 -s 3 -d 5 -p tcp -e 1040 -c 1 -i 3 -a 1 -x {0.0 5.0 -1 ------- null}
r -t 0.23144 -s 3 -d 5 -p tcp -e 1040 -c 1 -i 2 -a 1 -x {0.0 5.0 1 ------- null}
+ -t 0.23144 -s 5 -d 3 -p ack -e 40 -c 1 -i 4 -a 1 -x {5.0 0.0 1 ------- null}
- -t 0.23144 -s 5 -d 3 -p ack -e 40 -c 1 -i 4 -a 1 -x {5.0 0.0 1 ------- null}
h -t 0.23144 -s 5 -d 3 -p ack -e 40 -c 1 -i 4 -a 1 -x {5.0 0.0 -1 ------- null}
r -t 0.2336 -s 5 -d 3 -p ack -e 40 -c 1 -i 4 -a 1 -x {5.0 0.0 1 ------- null}
+ -t 0.2336 -s 3 -d 2 -p ack -e 40 -c 1 -i 4 -a 1 -x {5.0 0.0 1 ------- null}
- -t 0.2336 -s 3 -d 2 -p ack -e 40 -c 1 -i 4 -a 1 -x {5.0 0.0 1 ------- null}
h -t 0.2336 -s 3 -d 2 -p ack -e 40 -c 1 -i 4 -a 1 -x {5.0 0.0 -1 ------- null}
r -t 0.2356 -s 3 -d 5 -p tcp -e 1040 -c 1 -i 3 -a 1 -x {0.0 5.0 2 ------- null}
+ -t 0.2356 -s 5 -d 3 -p ack -e 40 -c 1 -i 5 -a 1 -x {5.0 0.0 2 ------- null}
- -t 0.2356 -s 5 -d 3 -p ack -e 40 -c 1 -i 5 -a 1 -x {5.0 0.0 2 ------- null}
h -t 0.2356 -s 5 -d 3 -p ack -e 40 -c 1 -i 5 -a 1 -x {5.0 0.0 -1 ------- null}
r -t 0.23576 -s 3 -d 2 -p ack -e 40 -c 1 -i 4 -a 1 -x {5.0 0.0 1 ------- null}
+ -t 0.23576 -s 2 -d 0 -p ack -e 40 -c 1 -i 4 -a 1 -x {5.0 0.0 1 ------- null}
- -t 0.23576 -s 2 -d 0 -p ack -e 40 -c 1 -i 4 -a 1 -x {5.0 0.0 1 ------- null}
h -t 0.23576 -s 2 -d 0 -p ack -e 40 -c 1 -i 4 -a 1 -x {5.0 0.0 -1 ------- null}
r -t 0.23776 -s 5 -d 3 -p ack -e 40 -c 1 -i 5 -a 1 -x {5.0 0.0 2 ------- null}
+ -t 0.23776 -s 3 -d 2 -p ack -e 40 -c 1 -i 5 -a 1 -x {5.0 0.0 2 ------- null}
- -t 0.23776 -s 3 -d 2 -p ack -e 40 -c 1 -i 5 -a 1 -x {5.0 0.0 2 ------- null}
h -t 0.23776 -s 3 -d 2 -p ack -e 40 -c 1 -i 5 -a 1 -x {5.0 0.0 -1 ------- null}
r -t 0.23792 -s 2 -d 0 -p ack -e 40 -c 1 -i 4 -a 1 -x {5.0 0.0 1 ------- null}
+ -t 0.23792 -s 0 -d 2 -p tcp -e 1040 -c 1 -i 6 -a 1 -x {0.0 5.0 3 ------- null}
- -t 0.23792 -s 0 -d 2 -p tcp -e 1040 -c 1 -i 6 -a 1 -x {0.0 5.0 3 ------- null}
h -t 0.23792 -s 0 -d 2 -p tcp -e 1040 -c 1 -i 6 -a 1 -x {0.0 5.0 -1 ------- null}
+ -t 0.23792 -s 0 -d 2 -p tcp -e 1040 -c 1 -i 7 -a 1 -x {0.0 5.0 4 ------- null}
r -t 0.23992 -s 3 -d 2 -p ack -e 40 -c 1 -i 5 -a 1 -x {5.0 0.0 2 ------- null}
+ -t 0.23992 -s 2 -d 0 -p ack -e 40 -c 1 -i 5 -a 1 -x {5.0 0.0 2 ------- null}
- -t 0.23992 -s 2 -d 0 -p ack -e 40 -c 1 -i 5 -a 1 -x {5.0 0.0 2 ------- null}
h -t 0.23992 -s 2 -d 0 -p ack -e 40 -c 1 -i 5 -a 1 -x {5.0 0.0 -1 ------- null}
- -t 0.24208 -s 0 -d 2 -p tcp -e 1040 -c 1 -i 7 -a 1 -x {0.0 5.0 4 ------- null}
h -t 0.24208 -s 0 -d 2 -p tcp -e 1040 -c 1 -i 7 -a 1 -x {0.0 5.0 -1 ------- null}
r -t 0.24208 -s 2 -d 0 -p ack -e 40 -c 1 -i 5 -a 1 -x {5.0 0.0 2 ------- null}
+ -t 0.24208 -s 0 -d 2 -p tcp -e 1040 -c 1 -i 8 -a 1 -x {0.0 5.0 5 ------- null}
+ -t 0.24208 -s 0 -d 2 -p tcp -e 1040 -c 1 -i 9 -a 1 -x {0.0 5.0 6 ------- null}
r -t 0.24408 -s 0 -d 2 -p tcp -e 1040 -c 1 -i 6 -a 1 -x {0.0 5.0 3 ------- null}
+ -t 0.24408 -s 2 -d 3 -p tcp -e 1040 -c 1 -i 6 -a 1 -x {0.0 5.0 3 ------- null}
- -t 0.24408 -s 2 -d 3 -p tcp -e 1040 -c 1 -i 6 -a 1 -x {0.0 5.0 3 ------- null}
h -t 0.24408 -s 2 -d 3 -p tcp -e 1040 -c 1 -i 6 -a 1 -x {0.0 5.0 -1 ------- null}
- -t 0.24624 -s 0 -d 2 -p tcp -e 1040 -c 1 -i 8 -a 1 -x {0.0 5.0 5 ------- null}
h -t 0.24624 -s 0 -d 2 -p tcp -e 1040 -c 1 -i 8 -a 1 -x {0.0 5.0 -1 ------- null}
r -t 0.24824 -s 0 -d 2 -p tcp -e 1040 -c 1 -i 7 -a 1 -x {0.0 5.0 4 ------- null}
+ -t 0.24824 -s 2 -d 3 -p tcp -e 1040 -c 1 -i 7 -a 1 -x {0.0 5.0 4 ------- null}
- -t 0.24824 -s 2 -d 3 -p tcp -e 1040 -c 1 -i 7 -a 1 -x {0.0 5.0 4 ------- null}
h -t 0.24824 -s 2 -d 3 -p tcp -e 1040 -c 1 -i 7 -a 1 -x {0.0 5.0 -1 ------- null}
r -t 0.25024 -s 2 -d 3 -p tcp -e 1040 -c 1 -i 6 -a 1 -x {0.0 5.0 3 ------- null}
+ -t 0.25024 -s 3 -d 5 -p tcp -e 1040 -c 1 -i 6 -a 1 -x {0.0 5.0 3 ------- null}
- -t 0.25024 -s 3 -d 5 -p tcp -e 1040 -c 1 -i 6 -a 1 -x {0.0 5.0 3 ------- null}
h -t 0.25024 -s 3 -d 5 -p tcp -e 1040 -c 1 -i 6 -a 1 -x {0.0 5.0 -1 ------- null}
- -t 0.2504 -s 0 -d 2 -p tcp -e 1040 -c 1 -i 9 -a 1 -x {0.0 5.0 6 ------- null}
h -t 0.2504 -s 0 -d 2 -p tcp -e 1040 -c 1 -i 9 -a 1 -x {0.0 5.0 -1 ------- null}
r -t 0.2524 -s 0 -d 2 -p tcp -e 1040 -c 1 -i 8 -a 1 -x {0.0 5.0 5 ------- null}
+ -t 0.2524 -s 2 -d 3 -p tcp -e 1040 -c 1 -i 8 -a 1 -x {0.0 5.0 5 ------- null}
- -t 0.2524 -s 2 -d 3 -p tcp -e 1040 -c 1 -i 8 -a 1 -x {0.0 5.0 5 ------- null}
h -t 0.2524 -s 2 -d 3 -p tcp -e 1040 -c 1 -i 8 -a 1 -x {0.0 5.0 -1 ------- null}
r -t 0.2544 -s 2 -d 3 -p tcp -e 1040 -c 1 -i 7 -a 1 -x {0.0 5.0 4 ------- null}
+ -t 0.2544 -s 3 -d 5 -p tcp -e 1040 -c 1 -i 7 -a 1 -x {0.0 5.0 4 ------- null}
- -t 0.2544 -s 3 -d 5 -p tcp -e 1040 -c 1 -i 7 -a 1 -x {0.0 5.0 4 ------- null}
h -t 0.2544 -s 3 -d 5 -p tcp -e 1040 -c 1 -i 7 -a 1 -x {0.0 5.0 -1 ------- null}
r -t 0.2564 -s 3 -d 5 -p tcp -e 1040 -c 1 -i 6 -a 1 -x {0.0 5.0 3 ------- null}
+ -t 0.2564 -s 5 -d 3 -p ack -e 40 -c 1 -i 10 -a 1 -x {5.0 0.0 3 ------- null}
- -t 0.2564 -s 5 -d 3 -p ack -e 40 -c 1 -i 10 -a 1 -x {5.0 0.0 3 ------- null}
h -t 0.2564 -s 5 -d 3 -p ack -e 40 -c 1 -i 10 -a 1 -x {5.0 0.0 -1 ------- null}
r -t 0.25656 -s 0 -d 2 -p tcp -e 1040 -c 1 -i 9 -a 1 -x {0.0 5.0 6 ------- null}
+ -t 0.25656 -s 2 -d 3 -p tcp -e 1040 -c 1 -i 9 -a 1 -x {0.0 5.0 6 ------- null}
- -t 0.25656 -s 2 -d 3 -p tcp -e 1040 -c 1 -i 9 -a 1 -x {0.0 5.0 6 ------- null}
h -t 0.25656 -s 2 -d 3 -p tcp -e 1040 -c 1 -i 9 -a 1 -x {0.0 5.0 -1 ------- null}
r -t 0.25856 -s 2 -d 3 -p tcp -e 1040 -c 1 -i 8 -a 1 -x {0.0 5.0 5 ------- null}
+ -t 0.25856 -s 3 -d 5 -p tcp -e 1040 -c 1 -i 8 -a 1 -x {0.0 5.0 5 ------- null}
- -t 0.25856 -s 3 -d 5 -p tcp -e 1040 -c 1 -i 8 -a 1 -x {0.0 5.0 5 ------- null}
h -t 0.25856 -s 3 -d 5 -p tcp -e 1040 -c 1 -i 8 -a 1 -x {0.0 5.0 -1 ------- null}
r -t 0.25856 -s 5 -d 3 -p ack -e 40 -c 1 -i 10 -a 1 -x {5.0 0.0 3 ------- null}
+ -t 0.25856 -s 3 -d 2 -p ack -e 40 -c 1 -i 10 -a 1 -x {5.0 0.0 3 ------- null}
- -t 0.25856 -s 3 -d 2 -p ack -e 40 -c 1 -i 10 -a 1 -x {5.0 0.0 3 ------- null}
h -t 0.25856 -s 3 -d 2 -p ack -e 40 -c 1 -i 10 -a 1 -x {5.0 0.0 -1 ------- null}
r -t 0.26056 -s 3 -d 5 -p tcp -e 1040 -c 1 -i 7 -a 1 -x {0.0 5.0 4 ------- null}
+ -t 0.26056 -s 5 -d 3 -p ack -e 40 -c 1 -i 11 -a 1 -x {5.0 0.0 4 ------- null}
- -t 0.26056 -s 5 -d 3 -p ack -e 40 -c 1 -i 11 -a 1 -x {5.0 0.0 4 ------- null}
h -t 0.26056 -s 5 -d 3 -p ack -e 40 -c 1 -i 11 -a 1 -x {5.0 0.0 -1 ------- null}
r -t 0.26072 -s 3 -d 2 -p ack -e 40 -c 1 -i 10 -a 1 -x {5.0 0.0 3 ------- null}
+ -t 0.26072 -s 2 -d 0 -p ack -e 40 -c 1 -i 10 -a 1 -x {5.0 0.0 3 ------- null}
- -t 0.26072 -s 2 -d 0 -p ack -e 40 -c 1 -i 10 -a 1 -x {5.0 0.0 3 ------- null}
h -t 0.26072 -s 2 -d 0 -p ack -e 40 -c 1 -i 10 -a 1 -x {5.0 0.0 -1 ------- null}
r -t 0.26272 -s 2 -d 3 -p tcp -e 1040 -c 1 -i 9 -a 1 -x {0.0 5.0 6 ------- null}
+ -t 0.26272 -s 3 -d 5 -p tcp -e 1040 -c 1 -i 9 -a 1 -x {0.0 5.0 6 ------- null}
- -t 0.26272 -s 3 -d 5 -p tcp -e 1040 -c 1 -i 9 -a 1 -x {0.0 5.0 6 ------- null}
h -t 0.26272 -s 3 -d 5 -p tcp -e 1040 -c 1 -i 9 -a 1 -x {0.0 5.0 -1 ------- null}
r -t 0.26272 -s 5 -d 3 -p ack -e 40 -c 1 -i 11 -a 1 -x {5.0 0.0 4 ------- null}
+ -t 0.26272 -s 3 -d 2 -p ack -e 40 -c 1 -i 11 -a 1 -x {5.0 0.0 4 ------- null}
- -t 0.26272 -s 3 -d 2 -p ack -e 40 -c 1 -i 11 -a 1 -x {5.0 0.0 4 ------- null}
h -t 0.26272 -s 3 -d 2 -p ack -e 40 -c 1 -i 11 -a 1 -x {5.0 0.0 -1 ------- null}
r -t 0.26288 -s 2 -d 0 -p ack -e 40 -c 1 -i 10 -a 1 -x {5.0 0.0 3 ------- null}
+ -t 0.26288 -s 0 -d 2 -p tcp -e 1040 -c 1 -i 12 -a 1 -x {0.0 5.0 7 ------- null}
- -t 0.26288 -s 0 -d 2 -p tcp -e 1040 -c 1 -i 12 -a 1 -x {0.0 5.0 7 ------- null}
h -t 0.26288 -s 0 -d 2 -p tcp -e 1040 -c 1 -i 12 -a 1 -x {0.0 5.0 -1 ------- null}
+ -t 0.26288 -s 0 -d 2 -p tcp -e 1040 -c 1 -i 13 -a 1 -x {0.0 5.0 8 ------- null}
r -t 0.26472 -s 3 -d 5 -p tcp -e 1040 -c 1 -i 8 -a 1 -x {0.0 5.0 5 ------- null}
+ -t 0.26472 -s 5 -d 3 -p ack -e 40 -c 1 -i 14 -a 1 -x {5.0 0.0 5 ------- null}
- -t 0.26472 -s 5 -d 3 -p ack -e 40 -c 1 -i 14 -a 1 -x {5.0 0.0 5 ------- null}
h -t 0.26472 -s 5 -d 3 -p ack -e 40 -c 1 -i 14 -a 1 -x {5.0 0.0 -1 ------- null}
r -t 0.26488 -s 3 -d 2 -p ack -e 40 -c 1 -i 11 -a 1 -x {5.0 0.0 4 ------- null}
+ -t 0.26488 -s 2 -d 0 -p ack -e 40 -c 1 -i 11 -a 1 -x {5.0 0.0 4 ------- null}
- -t 0.26488 -s 2 -d 0 -p ack -e 40 -c 1 -i 11 -a 1 -x {5.0 0.0 4 ------- null}
h -t 0.26488 -s 2 -d 0 -p ack -e 40 -c 1 -i 11 -a 1 -x {5.0 0.0 -1 ------- null}
r -t 0.26688 -s 5 -d 3 -p ack -e 40 -c 1 -i 14 -a 1 -x {5.0 0.0 5 ------- null}
+ -t 0.26688 -s 3 -d 2 -p ack -e 40 -c 1 -i 14 -a 1 -x {5.0 0.0 5 ------- null}
- -t 0.26688 -s 3 -d 2 -p ack -e 40 -c 1 -i 14 -a 1 -x {5.0 0.0 5 ------- null}
h -t 0.26688 -s 3 -d 2 -p ack -e 40 -c 1 -i 14 -a 1 -x {5.0 0.0 -1 ------- null}
- -t 0.26704 -s 0 -d 2 -p tcp -e 1040 -c 1 -i 13 -a 1 -x {0.0 5.0 8 ------- null}
h -t 0.26704 -s 0 -d 2 -p tcp -e 1040 -c 1 -i 13 -a 1 -x {0.0 5.0 -1 ------- null}
r -t 0.26704 -s 2 -d 0 -p ack -e 40 -c 1 -i 11 -a 1 -x {5.0 0.0 4 ------- null}
+ -t 0.26704 -s 0 -d 2 -p tcp -e 1040 -c 1 -i 15 -a 1 -x {0.0 5.0 9 ------- null}
+ -t 0.26704 -s 0 -d 2 -p tcp -e 1040 -c 1 -i 16 -a 1 -x {0.0 5.0 10 ------- null}
r -t 0.26888 -s 3 -d 5 -p tcp -e 1040 -c 1 -i 9 -a 1 -x {0.0 5.0 6 ------- null}
+ -t 0.26888 -s 5 -d 3 -p ack -e 40 -c 1 -i 17 -a 1 -x {5.0 0.0 6 ------- null}
- -t 0.26888 -s 5 -d 3 -p ack -e 40 -c 1 -i 17 -a 1 -x {5.0 0.0 6 ------- null}
h -t 0.26888 -s 5 -d 3 -p ack -e 40 -c 1 -i 17 -a 1 -x {5.0 0.0 -1 ------- null}
r -t 0.26904 -s 0 -d 2 -p tcp -e 1040 -c 1 -i 12 -a 1 -x {0.0 5.0 7 ------- null}
+ -t 0.26904 -s 2 -d 3 -p tcp -e 1040 -c 1 -i 12 -a 1 -x {0.0 5.0 7 ------- null}
- -t 0.26904 -s 2 -d 3 -p tcp -e 1040 -c 1 -i 12 -a 1 -x {0.0 5.0 7 ------- null}
h -t 0.26904 -s 2 -d 3 -p tcp -e 1040 -c 1 -i 12 -a 1 -x {0.0 5.0 -1 ------- null}
r -t 0.26904 -s 3 -d 2 -p ack -e 40 -c 1 -i 14 -a 1 -x {5.0 0.0 5 ------- null}
+ -t 0.26904 -s 2 -d 0 -p ack -e 40 -c 1 -i 14 -a 1 -x {5.0 0.0 5 ------- null}
- -t 0.26904 -s 2 -d 0 -p ack -e 40 -c 1 -i 14 -a 1 -x {5.0 0.0 5 ------- null}
h -t 0.26904 -s 2 -d 0 -p ack -e 40 -c 1 -i 14 -a 1 -x {5.0 0.0 -1 ------- null}
r -t 0.27104 -s 5 -d 3 -p ack -e 40 -c 1 -i 17 -a 1 -x {5.0 0.0 6 ------- null}
+ -t 0.27104 -s 3 -d 2 -p ack -e 40 -c 1 -i 17 -a 1 -x {5.0 0.0 6 ------- null}
- -t 0.27104 -s 3 -d 2 -p ack -e 40 -c 1 -i 17 -a 1 -x {5.0 0.0 6 ------- null}
h -t 0.27104 -s 3 -d 2 -p ack -e 40 -c 1 -i 17 -a 1 -x {5.0 0.0 -1 ------- null}
- -t 0.2712 -s 0 -d 2 -p tcp -e 1040 -c 1 -i 15 -a 1 -x {0.0 5.0 9 ------- null}
h -t 0.2712 -s 0 -d 2 -p tcp -e 1040 -c 1 -i 15 -a 1 -x {0.0 5.0 -1 ------- null}
r -t 0.2712 -s 2 -d 0 -p ack -e 40 -c 1 -i 14 -a 1 -x {5.0 0.0 5 ------- null}
+ -t 0.2712 -s 0 -d 2 -p tcp -e 1040 -c 1 -i 18 -a 1 -x {0.0 5.0 11 ------- null}
+ -t 0.2712 -s 0 -d 2 -p tcp -e 1040 -c 1 -i 19 -a 1 -x {0.0 5.0 12 ------- null}
r -t 0.2732 -s 0 -d 2 -p tcp -e 1040 -c 1 -i 13 -a 1 -x {0.0 5.0 8 ------- null}
+ -t 0.2732 -s 2 -d 3 -p tcp -e 1040 -c 1 -i 13 -a 1 -x {0.0 5.0 8 ------- null}
- -t 0.2732 -s 2 -d 3 -p tcp -e 1040 -c 1 -i 13 -a 1 -x {0.0 5.0 8 ------- null}
h -t 0.2732 -s 2 -d 3 -p tcp -e 1040 -c 1 -i 13 -a 1 -x {0.0 5.0 -1 ------- null}
r -t 0.2732 -s 3 -d 2 -p ack -e 40 -c 1 -i 17 -a 1 -x {5.0 0.0 6 ------- null}
+ -t 0.2732 -s 2 -d 0 -p ack -e 40 -c 1 -i 17 -a 1 -x {5.0 0.0 6 ------- null}
- -t 0.2732 -s 2 -d 0 -p ack -e 40 -c 1 -i 17 -a 1 -x {5.0 0.0 6 ------- null}
h -t 0.2732 -s 2 -d 0 -p ack -e 40 -c 1 -i 17 -a 1 -x {5.0 0.0 -1 ------- null}
r -t 0.2752 -s 2 -d 3 -p tcp -e 1040 -c 1 -i 12 -a 1 -x {0.0 5.0 7 ------- null}
+ -t 0.2752 -s 3 -d 5 -p tcp -e 1040 -c 1 -i 12 -a 1 -x {0.0 5.0 7 ------- null}
- -t 0.2752 -s 3 -d 5 -p tcp -e 1040 -c 1 -i 12 -a 1 -x {0.0 5.0 7 ------- null}
h -t 0.2752 -s 3 -d 5 -p tcp -e 1040 -c 1 -i 12 -a 1 -x {0.0 5.0 -1 ------- null}
- -t 0.27536 -s 0 -d 2 -p tcp -e 1040 -c 1 -i 16 -a 1 -x {0.0 5.0 10 ------- null}
h -t 0.27536 -s 0 -d 2 -p tcp -e 1040 -c 1 -i 16 -a 1 -x {0.0 5.0 -1 ------- null}
r -t 0.27536 -s 2 -d 0 -p ack -e 40 -c 1 -i 17 -a 1 -x {5.0 0.0 6 ------- null}
+ -t 0.27536 -s 0 -d 2 -p tcp -e 1040 -c 1 -i 20 -a 1 -x {0.0 5.0 13 ------- null}
+ -t 0.27536 -s 0 -d 2 -p tcp -e 1040 -c 1 -i 21 -a 1 -x {0.0 5.0 14 ------- null}
r -t 0.27736 -s 0 -d 2 -p tcp -e 1040 -c 1 -i 15 -a 1 -x {0.0 5.0 9 ------- null}
+ -t 0.27736 -s 2 -d 3 -p tcp -e 1040 -c 1 -i 15 -a 1 -x {0.0 5.0 9 ------- null}
- -t 0.27736 -s 2 -d 3 -p tcp -e 1040 -c 1 -i 15 -a 1 -x {0.0 5.0 9 ------- null}
h -t 0.27736 -s 2 -d 3 -p tcp -e 1040 -c 1 -i 15 -a 1 -x {0.0 5.0 -1 ------- null}
r -t 0.27936 -s 2 -d 3 -p tcp -e 1040 -c 1 -i 13 -a 1 -x {0.0 5.0 8 ------- null}
+ -t 0.27936 -s 3 -d 5 -p tcp -e 1040 -c 1 -i 13 -a 1 -x {0.0 5.0 8 ------- null}
- -t 0.27936 -s 3 -d 5 -p tcp -e 1040 -c 1 -i 13 -a 1 -x {0.0 5.0 8 ------- null}
h -t 0.27936 -s 3 -d 5 -p tcp -e 1040 -c 1 -i 13 -a 1 -x {0.0 5.0 -1 ------- null}
- -t 0.27952 -s 0 -d 2 -p tcp -e 1040 -c 1 -i 18 -a 1 -x {0.0 5.0 11 ------- null}
h -t 0.27952 -s 0 -d 2 -p tcp -e 1040 -c 1 -i 18 -a 1 -x {0.0 5.0 -1 ------- null}
r -t 0.28136 -s 3 -d 5 -p tcp -e 1040 -c 1 -i 12 -a 1 -x {0.0 5.0 7 ------- null}
+ -t 0.28136 -s 5 -d 3 -p ack -e 40 -c 1 -i 22 -a 1 -x {5.0 0.0 7 ------- null}
- -t 0.28136 -s 5 -d 3 -p ack -e 40 -c 1 -i 22 -a 1 -x {5.0 0.0 7 ------- null}
h -t 0.28136 -s 5 -d 3 -p ack -e 40 -c 1 -i 22 -a 1 -x {5.0 0.0 -1 ------- null}
r -t 0.28152 -s 0 -d 2 -p tcp -e 1040 -c 1 -i 16 -a 1 -x {0.0 5.0 10 ------- null}
+ -t 0.28152 -s 2 -d 3 -p tcp -e 1040 -c 1 -i 16 -a 1 -x {0.0 5.0 10 ------- null}
- -t 0.28152 -s 2 -d 3 -p tcp -e 1040 -c 1 -i 16 -a 1 -x {0.0 5.0 10 ------- null}
h -t 0.28152 -s 2 -d 3 -p tcp -e 1040 -c 1 -i 16 -a 1 -x {0.0 5.0 -1 ------- null}
r -t 0.28352 -s 2 -d 3 -p tcp -e 1040 -c 1 -i 15 -a 1 -x {0.0 5.0 9 ------- null}
+ -t 0.28352 -s 3 -d 5 -p tcp -e 1040 -c 1 -i 15 -a 1 -x {0.0 5.0 9 ------- null}
- -t 0.28352 -s 3 -d 5 -p tcp -e 1040 -c 1 -i 15 -a 1 -x {0.0 5.0 9 ------- null}
h -t 0.28352 -s 3 -d 5 -p tcp -e 1040 -c 1 -i 15 -a 1 -x {0.0 5.0 -1 ------- null}
r -t 0.28352 -s 5 -d 3 -p ack -e 40 -c 1 -i 22 -a 1 -x {5.0 0.0 7 ------- null}
+ -t 0.28352 -s 3 -d 2 -p ack -e 40 -c 1 -i 22 -a 1 -x {5.0 0.0 7 ------- null}
- -t 0.28352 -s 3 -d 2 -p ack -e 40 -c 1 -i 22 -a 1 -x {5.0 0.0 7 ------- null}
h -t 0.28352 -s 3 -d 2 -p ack -e 40 -c 1 -i 22 -a 1 -x {5.0 0.0 -1 ------- null}
- -t 0.28368 -s 0 -d 2 -p tcp -e 1040 -c 1 -i 19 -a 1 -x {0.0 5.0 12 ------- null}
h -t 0.28368 -s 0 -d 2 -p tcp -e 1040 -c 1 -i 19 -a 1 -x {0.0 5.0 -1 ------- null}
r -t 0.28552 -s 3 -d 5 -p tcp -e 1040 -c 1 -i 13 -a 1 -x {0.0 5.0 8 ------- null}
+ -t 0.28552 -s 5 -d 3 -p ack -e 40 -c 1 -i 23 -a 1 -x {5.0 0.0 8 ------- null}
- -t 0.28552 -s 5 -d 3 -p ack -e 40 -c 1 -i 23 -a 1 -x {5.0 0.0 8 ------- null}
h -t 0.28552 -s 5 -d 3 -p ack -e 40 -c 1 -i 23 -a 1 -x {5.0 0.0 -1 ------- null}
r -t 0.28568 -s 0 -d 2 -p tcp -e 1040 -c 1 -i 18 -a 1 -x {0.0 5.0 11 ------- null}
+ -t 0.28568 -s 2 -d 3 -p tcp -e 1040 -c 1 -i 18 -a 1 -x {0.0 5.0 11 ------- null}
- -t 0.28568 -s 2 -d 3 -p tcp -e 1040 -c 1 -i 18 -a 1 -x {0.0 5.0 11 ------- null}
h -t 0.28568 -s 2 -d 3 -p tcp -e 1040 -c 1 -i 18 -a 1 -x {0.0 5.0 -1 ------- null}
r -t 0.28568 -s 3 -d 2 -p ack -e 40 -c 1 -i 22 -a 1 -x {5.0 0.0 7 ------- null}
+ -t 0.28568 -s 2 -d 0 -p ack -e 40 -c 1 -i 22 -a 1 -x {5.0 0.0 7 ------- null}
- -t 0.28568 -s 2 -d 0 -p ack -e 40 -c 1 -i 22 -a 1 -x {5.0 0.0 7 ------- null}
h -t 0.28568 -s 2 -d 0 -p ack -e 40 -c 1 -i 22 -a 1 -x {5.0 0.0 -1 ------- null}
r -t 0.28768 -s 2 -d 3 -p tcp -e 1040 -c 1 -i 16 -a 1 -x {0.0 5.0 10 ------- null}
+ -t 0.28768 -s 3 -d 5 -p tcp -e 1040 -c 1 -i 16 -a 1 -x {0.0 5.0 10 ------- null}
- -t 0.28768 -s 3 -d 5 -p tcp -e 1040 -c 1 -i 16 -a 1 -x {0.0 5.0 10 ------- null}
h -t 0.28768 -s 3 -d 5 -p tcp -e 1040 -c 1 -i 16 -a 1 -x {0.0 5.0 -1 ------- null}
r -t 0.28768 -s 5 -d 3 -p ack -e 40 -c 1 -i 23 -a 1 -x {5.0 0.0 8 ------- null}
+ -t 0.28768 -s 3 -d 2 -p ack -e 40 -c 1 -i 23 -a 1 -x {5.0 0.0 8 ------- null}
- -t 0.28768 -s 3 -d 2 -p ack -e 40 -c 1 -i 23 -a 1 -x {5.0 0.0 8 ------- null}
h -t 0.28768 -s 3 -d 2 -p ack -e 40 -c 1 -i 23 -a 1 -x {5.0 0.0 -1 ------- null}
- -t 0.28784 -s 0 -d 2 -p tcp -e 1040 -c 1 -i 20 -a 1 -x {0.0 5.0 13 ------- null}
h -t 0.28784 -s 0 -d 2 -p tcp -e 1040 -c 1 -i 20 -a 1 -x {0.0 5.0 -1 ------- null}
r -t 0.28784 -s 2 -d 0 -p ack -e 40 -c 1 -i 22 -a 1 -x {5.0 0.0 7 ------- null}
+ -t 0.28784 -s 0 -d 2 -p tcp -e 1040 -c 1 -i 24 -a 1 -x {0.0 5.0 15 ------- null}
+ -t 0.28784 -s 0 -d 2 -p tcp -e 1040 -c 1 -i 25 -a 1 -x {0.0 5.0 16 ------- null}
r -t 0.28968 -s 3 -d 5 -p tcp -e 1040 -c 1 -i 15 -a 1 -x {0.0 5.0 9 ------- null}
+ -t 0.28968 -s 5 -d 3 -p ack -e 40 -c 1 -i 26 -a 1 -x {5.0 0.0 9 ------- null}
- -t 0.28968 -s 5 -d 3 -p ack -e 40 -c 1 -i 26 -a 1 -x {5.0 0.0 9 ------- null}
h -t 0.28968 -s 5 -d 3 -p ack -e 40 -c 1 -i 26 -a 1 -x {5.0 0.0 -1 ------- null}
r -t 0.28984 -s 0 -d 2 -p tcp -e 1040 -c 1 -i 19 -a 1 -x {0.0 5.0 12 ------- null}
+ -t 0.28984 -s 2 -d 3 -p tcp -e 1040 -c 1 -i 19 -a 1 -x {0.0 5.0 12 ------- null}
- -t 0.28984 -s 2 -d 3 -p tcp -e 1040 -c 1 -i 19 -a 1 -x {0.0 5.0 12 ------- null}
h -t 0.28984 -s 2 -d 3 -p tcp -e 1040 -c 1 -i 19 -a 1 -x {0.0 5.0 -1 ------- null}
r -t 0.28984 -s 3 -d 2 -p ack -e 40 -c 1 -i 23 -a 1 -x {5.0 0.0 8 ------- null}
+ -t 0.28984 -s 2 -d 0 -p ack -e 40 -c 1 -i 23 -a 1 -x {5.0 0.0 8 ------- null}
- -t 0.28984 -s 2 -d 0 -p ack -e 40 -c 1 -i 23 -a 1 -x {5.0 0.0 8 ------- null}
h -t 0.28984 -s 2 -d 0 -p ack -e 40 -c 1 -i 23 -a 1 -x {5.0 0.0 -1 ------- null}
r -t 0.29184 -s 2 -d 3 -p tcp -e 1040 -c 1 -i 18 -a 1 -x {0.0 5.0 11 ------- null}
+ -t 0.29184 -s 3 -d 5 -p tcp -e 1040 -c 1 -i 18 -a 1 -x {0.0 5.0 11 ------- null}
- -t 0.29184 -s 3 -d 5 -p tcp -e 1040 -c 1 -i 18 -a 1 -x {0.0 5.0 11 ------- null}
h -t 0.29184 -s 3 -d 5 -p tcp -e 1040 -c 1 -i 18 -a 1 -x {0.0 5.0 -1 ------- null}
r -t 0.29184 -s 5 -d 3 -p ack -e 40 -c 1 -i 26 -a 1 -x {5.0 0.0 9 ------- null}
+ -t 0.29184 -s 3 -d 2 -p ack -e 40 -c 1 -i 26 -a 1 -x {5.0 0.0 9 ------- null}
- -t 0.29184 -s 3 -d 2 -p ack -e 40 -c 1 -i 26 -a 1 -x {5.0 0.0 9 ------- null}
h -t 0.29184 -s 3 -d 2 -p ack -e 40 -c 1 -i 26 -a 1 -x {5.0 0.0 -1 ------- null}
- -t 0.292 -s 0 -d 2 -p tcp -e 1040 -c 1 -i 21 -a 1 -x {0.0 5.0 14 ------- null}
h -t 0.292 -s 0 -d 2 -p tcp -e 1040 -c 1 -i 21 -a 1 -x {0.0 5.0 -1 ------- null}
r -t 0.292 -s 2 -d 0 -p ack -e 40 -c 1 -i 23 -a 1 -x {5.0 0.0 8 ------- null}
+ -t 0.292 -s 0 -d 2 -p tcp -e 1040 -c 1 -i 27 -a 1 -x {0.0 5.0 17 ------- null}
+ -t 0.292 -s 0 -d 2 -p tcp -e 1040 -c 1 -i 28 -a 1 -x {0.0 5.0 18 ------- null}
r -t 0.29384 -s 3 -d 5 -p tcp -e 1040 -c 1 -i 16 -a 1 -x {0.0 5.0 10 ------- null}
+ -t 0.29384 -s 5 -d 3 -p ack -e 40 -c 1 -i 29 -a 1 -x {5.0 0.0 10 ------- null}
- -t 0.29384 -s 5 -d 3 -p ack -e 40 -c 1 -i 29 -a 1 -x {5.0 0.0 10 ------- null}
h -t 0.29384 -s 5 -d 3 -p ack -e 40 -c 1 -i 29 -a 1 -x {5.0 0.0 -1 ------- null}
r -t 0.294 -s 0 -d 2 -p tcp -e 1040 -c 1 -i 20 -a 1 -x {0.0 5.0 13 ------- null}
+ -t 0.294 -s 2 -d 3 -p tcp -e 1040 -c 1 -i 20 -a 1 -x {0.0 5.0 13 ------- null}
- -t 0.294 -s 2 -d 3 -p tcp -e 1040 -c 1 -i 20 -a 1 -x {0.0 5.0 13 ------- null}
h -t 0.294 -s 2 -d 3 -p tcp -e 1040 -c 1 -i 20 -a 1 -x {0.0 5.0 -1 ------- null}
r -t 0.294 -s 3 -d 2 -p ack -e 40 -c 1 -i 26 -a 1 -x {5.0 0.0 9 ------- null}
+ -t 0.294 -s 2 -d 0 -p ack -e 40 -c 1 -i 26 -a 1 -x {5.0 0.0 9 ------- null}
- -t 0.294 -s 2 -d 0 -p ack -e 40 -c 1 -i 26 -a 1 -x {5.0 0.0 9 ------- null}
h -t 0.294 -s 2 -d 0 -p ack -e 40 -c 1 -i 26 -a 1 -x {5.0 0.0 -1 ------- null}
r -t 0.296 -s 2 -d 3 -p tcp -e 1040 -c 1 -i 19 -a 1 -x {0.0 5.0 12 ------- null}
+ -t 0.296 -s 3 -d 5 -p tcp -e 1040 -c 1 -i 19 -a 1 -x {0.0 5.0 12 ------- null}
- -t 0.296 -s 3 -d 5 -p tcp -e 1040 -c 1 -i 19 -a 1 -x {0.0 5.0 12 ------- null}
h -t 0.296 -s 3 -d 5 -p tcp -e 1040 -c 1 -i 19 -a 1 -x {0.0 5.0 -1 ------- null}
r -t 0.296 -s 5 -d 3 -p ack -e 40 -c 1 -i 29 -a 1 -x {5.0 0.0 10 ------- null}
+ -t 0.296 -s 3 -d 2 -p ack -e 40 -c 1 -i 29 -a 1 -x {5.0 0.0 10 ------- null}
- -t 0.296 -s 3 -d 2 -p ack -e 40 -c 1 -i 29 -a 1 -x {5.0 0.0 10 ------- null}
h -t 0.296 -s 3 -d 2 -p ack -e 40 -c 1 -i 29 -a 1 -x {5.0 0.0 -1 ------- null}
- -t 0.29616 -s 0 -d 2 -p tcp -e 1040 -c 1 -i 24 -a 1 -x {0.0 5.0 15 ------- null}
h -t 0.29616 -s 0 -d 2 -p tcp -e 1040 -c 1 -i 24 -a 1 -x {0.0 5.0 -1 ------- null}
r -t 0.29616 -s 2 -d 0 -p ack -e 40 -c 1 -i 26 -a 1 -x {5.0 0.0 9 ------- null}
+ -t 0.29616 -s 0 -d 2 -p tcp -e 1040 -c 1 -i 30 -a 1 -x {0.0 5.0 19 ------- null}
+ -t 0.29616 -s 0 -d 2 -p tcp -e 1040 -c 1 -i 31 -a 1 -x {0.0 5.0 20 ------- null}
r -t 0.298 -s 3 -d 5 -p tcp -e 1040 -c 1 -i 18 -a 1 -x {0.0 5.0 11 ------- null}
+ -t 0.298 -s 5 -d 3 -p ack -e 40 -c 1 -i 32 -a 1 -x {5.0 0.0 11 ------- null}
- -t 0.298 -s 5 -d 3 -p ack -e 40 -c 1 -i 32 -a 1 -x {5.0 0.0 11 ------- null}
h -t 0.298 -s 5 -d 3 -p ack -e 40 -c 1 -i 32 -a 1 -x {5.0 0.0 -1 ------- null}
r -t 0.29816 -s 0 -d 2 -p tcp -e 1040 -c 1 -i 21 -a 1 -x {0.0 5.0 14 ------- null}
+ -t 0.29816 -s 2 -d 3 -p tcp -e 1040 -c 1 -i 21 -a 1 -x {0.0 5.0 14 ------- null}
- -t 0.29816 -s 2 -d 3 -p tcp -e 1040 -c 1 -i 21 -a 1 -x {0.0 5.0 14 ------- null}
h -t 0.29816 -s 2 -d 3 -p tcp -e 1040 -c 1 -i 21 -a 1 -x {0.0 5.0 -1 ------- null}
r -t 0.29816 -s 3 -d 2 -p ack -e 40 -c 1 -i 29 -a 1 -x {5.0 0.0 10 ------- null}
+ -t 0.29816 -s 2 -d 0 -p ack -e 40 -c 1 -i 29 -a 1 -x {5.0 0.0 10 ------- null}
- -t 0.29816 -s 2 -d 0 -p ack -e 40 -c 1 -i 29 -a 1 -x {5.0 0.0 10 ------- null}
h -t 0.29816 -s 2 -d 0 -p ack -e 40 -c 1 -i 29 -a 1 -x {5.0 0.0 -1 ------- null}
r -t 0.30016 -s 2 -d 3 -p tcp -e 1040 -c 1 -i 20 -a 1 -x {0.0 5.0 13 ------- null}
+ -t 0.30016 -s 3 -d 5 -p tcp -e 1040 -c 1 -i 20 -a 1 -x {0.0 5.0 13 ------- null}
- -t 0.30016 -s 3 -d 5 -p tcp -e 1040 -c 1 -i 20 -a 1 -x {0.0 5.0 13 ------- null}
h -t 0.30016 -s 3 -d 5 -p tcp -e 1040 -c 1 -i 20 -a 1 -x {0.0 5.0 -1 ------- null}
r -t 0.30016 -s 5 -d 3 -p ack -e 40 -c 1 -i 32 -a 1 -x {5.0 0.0 11 ------- null}
+ -t 0.30016 -s 3 -d 2 -p ack -e 40 -c 1 -i 32 -a 1 -x {5.0 0.0 11 ------- null}
- -t 0.30016 -s 3 -d 2 -p ack -e 40 -c 1 -i 32 -a 1 -x {5.0 0.0 11 ------- null}
h -t 0.30016 -s 3 -d 2 -p ack -e 40 -c 1 -i 32 -a 1 -x {5.0 0.0 -1 ------- null}
- -t 0.30032 -s 0 -d 2 -p tcp -e 1040 -c 1 -i 25 -a 1 -x {0.0 5.0 16 ------- null}
h -t 0.30032 -s 0 -d 2 -p tcp -e 1040 -c 1 -i 25 -a 1 -x {0.0 5.0 -1 ------- null}
r -t 0.30032 -s 2 -d 0 -p ack -e 40 -c 1 -i 29 -a 1 -x {5.0 0.0 10 ------- null}
+ -t 0.30032 -s 0 -d 2 -p tcp -e 1040 -c 1 -i 33 -a 1 -x {0.0 5.0 21 ------- null}
+ -t 0.30032 -s 0 -d 2 -p tcp -e 1040 -c 1 -i 34 -a 1 -x {0.0 5.0 22 ------- null}
r -t 0.30216 -s 3 -d 5 -p tcp -e 1040 -c 1 -i 19 -a 1 -x {0.0 5.0 12 ------- null}
+ -t 0.30216 -s 5 -d 3 -p ack -e 40 -c 1 -i 35 -a 1 -x {5.0 0.0 12 ------- null}
- -t 0.30216 -s 5 -d 3 -p ack -e 40 -c 1 -i 35 -a 1 -x {5.0 0.0 12 ------- null}
h -t 0.30216 -s 5 -d 3 -p ack -e 40 -c 1 -i 35 -a 1 -x {5.0 0.0 -1 ------- null}
r -t 0.30232 -s 0 -d 2 -p tcp -e 1040 -c 1 -i 24 -a 1 -x {0.0 5.0 15 ------- null}
+ -t 0.30232 -s 2 -d 3 -p tcp -e 1040 -c 1 -i 24 -a 1 -x {0.0 5.0 15 ------- null}
- -t 0.30232 -s 2 -d 3 -p tcp -e 1040 -c 1 -i 24 -a 1 -x {0.0 5.0 15 ------- null}
h -t 0.30232 -s 2 -d 3 -p tcp -e 1040 -c 1 -i 24 -a 1 -x {0.0 5.0 -1 ------- null}
r -t 0.30232 -s 3 -d 2 -p ack -e 40 -c 1 -i 32 -a 1 -x {5.0 0.0 11 ------- null}
+ -t 0.30232 -s 2 -d 0 -p ack -e 40 -c 1 -i 32 -a 1 -x {5.0 0.0 11 ------- null}
- -t 0.30232 -s 2 -d 0 -p ack -e 40 -c 1 -i 32 -a 1 -x {5.0 0.0 11 ------- null}
h -t 0.30232 -s 2 -d 0 -p ack -e 40 -c 1 -i 32 -a 1 -x {5.0 0.0 -1 ------- null}
r -t 0.30432 -s 2 -d 3 -p tcp -e 1040 -c 1 -i 21 -a 1 -x {0.0 5.0 14 ------- null}
+ -t 0.30432 -s 3 -d 5 -p tcp -e 1040 -c 1 -i 21 -a 1 -x {0.0 5.0 14 ------- null}
- -t 0.30432 -s 3 -d 5 -p tcp -e 1040 -c 1 -i 21 -a 1 -x {0.0 5.0 14 ------- null}
h -t 0.30432 -s 3 -d 5 -p tcp -e 1040 -c 1 -i 21 -a 1 -x {0.0 5.0 -1 ------- null}
r -t 0.30432 -s 5 -d 3 -p ack -e 40 -c 1 -i 35 -a 1 -x {5.0 0.0 12 ------- null}
+ -t 0.30432 -s 3 -d 2 -p ack -e 40 -c 1 -i 35 -a 1 -x {5.0 0.0 12 ------- null}
- -t 0.30432 -s 3 -d 2 -p ack -e 40 -c 1 -i 35 -a 1 -x {5.0 0.0 12 ------- null}
h -t 0.30432 -s 3 -d 2 -p ack -e 40 -c 1 -i 35 -a 1 -x {5.0 0.0 -1 ------- null}
- -t 0.30448 -s 0 -d 2 -p tcp -e 1040 -c 1 -i 27 -a 1 -x {0.0 5.0 17 ------- null}
h -t 0.30448 -s 0 -d 2 -p tcp -e 1040 -c 1 -i 27 -a 1 -x {0.0 5.0 -1 ------- null}
r -t 0.30448 -s 2 -d 0 -p ack -e 40 -c 1 -i 32 -a 1 -x {5.0 0.0 11 ------- null}
+ -t 0.30448 -s 0 -d 2 -p tcp -e 1040 -c 1 -i 36 -a 1 -x {0.0 5.0 23 ------- null}
+ -t 0.30448 -s 0 -d 2 -p tcp -e 1040 -c 1 -i 37 -a 1 -x {0.0 5.0 24 ------- null}
r -t 0.30632 -s 3 -d 5 -p tcp -e 1040 -c 1 -i 20 -a 1 -x {0.0 5.0 13 ------- null}
+ -t 0.30632 -s 5 -d 3 -p ack -e 40 -c 1 -i 38 -a 1 -x {5.0 0.0 13 ------- null}
- -t 0.30632 -s 5 -d 3 -p ack -e 40 -c 1 -i 38 -a 1 -x {5.0 0.0 13 ------- null}
h -t 0.30632 -s 5 -d 3 -p ack -e 40 -c 1 -i 38 -a 1 -x {5.0 0.0 -1 ------- null}
r -t 0.30648 -s 0 -d 2 -p tcp -e 1040 -c 1 -i 25 -a 1 -x {0.0 5.0 16 ------- null}
+ -t 0.30648 -s 2 -d 3 -p tcp -e 1040 -c 1 -i 25 -a 1 -x {0.0 5.0 16 ------- null}
- -t 0.30648 -s 2 -d 3 -p tcp -e 1040 -c 1 -i 25 -a 1 -x {0.0 5.0 16 ------- null}
h -t 0.30648 -s 2 -d 3 -p tcp -e 1040 -c 1 -i 25 -a 1 -x {0.0 5.0 -1 ------- null}
r -t 0.30648 -s 3 -d 2 -p ack -e 40 -c 1 -i 35 -a 1 -x {5.0 0.0 12 ------- null}
+ -t 0.30648 -s 2 -d 0 -p ack -e 40 -c 1 -i 35 -a 1 -x {5.0 0.0 12 ------- null}
- -t 0.30648 -s 2 -d 0 -p ack -e 40 -c 1 -i 35 -a 1 -x {5.0 0.0 12 ------- null}
h -t 0.30648 -s 2 -d 0 -p ack -e 40 -c 1 -i 35 -a 1 -x {5.0 0.0 -1 ------- null}
r -t 0.30848 -s 2 -d 3 -p tcp -e 1040 -c 1 -i 24 -a 1 -x {0.0 5.0 15 ------- null}