+ 0.2 0 2 tcp 40 ------- 1 0.0 5.0 0 0
- 0.2 0 2 tcp 40 ------- 1 0.0 5.0 0 0
r 0.20216 0 2 tcp 40 ------- 1 0.0 5.0 0 0
+ 0.20216 2 3 tcp 40 ------- 1 0.0 5.0 0 0
- 0.20216 2 3 tcp 40 ------- 1 0.0 5.0 0 0
r 0.20432 2 3 tcp 40 ------- 1 0.0 5.0 0 0
+ 0.20432 3 5 tcp 40 ------- 1 0.0 5.0 0 0
- 0.20432 3 5 tcp 40 ------- 1 0.0 5.0 0 0
r 0.20648 3 5 tcp 40 ------- 1 0.0 5.0 0 0
+ 0.20648 5 3 ack 40 ------- 1 5.0 0.0 0 1
- 0.20648 5 3 ack 40 ------- 1 5.0 0.0 0 1
r 0.20864 5 3 ack 40 ------- 1 5.0 0.0 0 1
+ 0.20864 3 2 ack 40 ------- 1 5.0 0.0 0 1
- 0.20864 3 2 ack 40 ------- 1 5.0 0.0 0 1
r 0.2108 3 2 ack 40 ------- 1 5.0 0.0 0 1
+ 0.2108 2 0 ack 40 ------- 1 5.0 0.0 0 1
- 0.2108 2 0 ack 40 ------- 1 5.0 0.0 0 1
r 0.21296 2 0 ack 40 ------- 1 5.0 0.0 0 1
+ 0.21296 0 2 tcp 1040 ------- 1 0.0 5.0 1 2
- 0.21296 0 2 tcp 1040 ------- 1 0.0 5.0 1 2
+ 0.21296 0 2 tcp 1040 ------- 1 0.0 5.0 2 3
- 0.21712 0 2 tcp 1040 ------- 1 0.0 5.0 2 3
r 0.21912 0 2 tcp 1040 ------- 1 0.0 5.0 1 2
+ 0.21912 2 3 tcp 1040 ------- 1 0.0 5.0 1 2
- 0.21912 2 3 tcp 1040 ------- 1 0.0 5.0 1 2
r 0.22328 0 2 tcp 1040 ------- 1 0.0 5.0 2 3
+ 0.22328 2 3 tcp 1040 ------- 1 0.0 5.0 2 3
- 0.22328 2 3 tcp 1040 ------- 1 0.0 5.0 2 3
r 0.22528 2 3 tcp 1040 ------- 1 0.0 5.0 1 2
+ 0.22528 3 5 tcp 1040 ------- 1 0.0 5.0 1 2
- 0.22528 3 5 tcp 1040 ------- 1 0.0 5.0 1 2
r 0.22944 2 3 tcp 1040 ------- 1 0.0 5.0 2 3
+ 0.22944 3 5 tcp 1040 ------- 1 0.0 5.0 2 3
- 0.22944 3 5 tcp 1040 ------- 1 0.0 5.0 2 3
r 0.23144 3 5 tcp 1040 ------- 1 0.0 5.0 1 2
+ 0.23144 5 3 ack 40 ------- 1 5.0 0.0 1 4
- 0.23144 5 3 ack 40 ------- 1 5.0 0.0 1 4
r 0.2336 5 3 ack 40 ------- 1 5.0 0.0 1 4
+ 0.2336 3 2 ack 40 ------- 1 5.0 0.0 1 4
- 0.2336 3 2 ack 40 ------- 1 5.0 0.0 1 4
r 0.2356 3 5 tcp 1040 ------- 1 0.0 5.0 2 3
+ 0.2356 5 3 ack 40 ------- 1 5.0 0.0 2 5
- 0.2356 5 3 ack 40 ------- 1 5.0 0.0 2 5
r 0.23576 3 2 ack 40 ------- 1 5.0 0.0 1 4
+ 0.23576 2 0 ack 40 ------- 1 5.0 0.0 1 4
- 0.23576 2 0 ack 40 ------- 1 5.0 0.0 1 4
r 0.23776 5 3 ack 40 ------- 1 5.0 0.0 2 5
+ 0.23776 3 2 ack 40 ------- 1 5.0 0.0 2 5
- 0.23776 3 2 ack 40 ------- 1 5.0 0.0 2 5
r 0.23792 2 0 ack 40 ------- 1 5.0 0.0 1 4
+ 0.23792 0 2 tcp 1040 ------- 1 0.0 5.0 3 6
- 0.23792 0 2 tcp 1040 ------- 1 0.0 5.0 3 6
+ 0.23792 0 2 tcp 1040 ------- 1 0.0 5.0 4 7
r 0.23992 3 2 ack 40 ------- 1 5.0 0.0 2 5
+ 0.23992 2 0 ack 40 ------- 1 5.0 0.0 2 5
- 0.23992 2 0 ack 40 ------- 1 5.0 0.0 2 5
- 0.24208 0 2 tcp 1040 ------- 1 0.0 5.0 4 7
r 0.24208 2 0 ack 40 ------- 1 5.0 0.0 2 5
+ 0.24208 0 2 tcp 1040 ------- 1 0.0 5.0 5 8
+ 0.24208 0 2 tcp 1040 ------- 1 0.0 5.0 6 9
r 0.24408 0 2 tcp 1040 ------- 1 0.0 5.0 3 6
+ 0.24408 2 3 tcp 1040 ------- 1 0.0 5.0 3 6
- 0.24408 2 3 tcp 1040 ------- 1 0.0 5.0 3 6
- 0.24624 0 2 tcp 1040 ------- 1 0.0 5.0 5 8
r 0.24824 0 2 tcp 1040 ------- 1 0.0 5.0 4 7
+ 0.24824 2 3 tcp 1040 ------- 1 0.0 5.0 4 7
- 0.24824 2 3 tcp 1040 ------- 1 0.0 5.0 4 7
r 0.25024 2 3 tcp 1040 ------- 1 0.0 5.0 3 6
+ 0.25024 3 5 tcp 1040 ------- 1 0.0 5.0 3 6
- 0.25024 3 5 tcp 1040 ------- 1 0.0 5.0 3 6
- 0.2504 0 2 tcp 1040 ------- 1 0.0 5.0 6 9
r 0.2524 0 2 tcp 1040 ------- 1 0.0 5.0 5 8
+ 0.2524 2 3 tcp 1040 ------- 1 0.0 5.0 5 8
- 0.2524 2 3 tcp 1040 ------- 1 0.0 5.0 5 8
r 0.2544 2 3 tcp 1040 ------- 1 0.0 5.0 4 7
+ 0.2544 3 5 tcp 1040 ------- 1 0.0 5.0 4 7
- 0.2544 3 5 tcp 1040 ------- 1 0.0 5.0 4 7
r 0.2564 3 5 tcp 1040 ------- 1 0.0 5.0 3 6
+ 0.2564 5 3 ack 40 ------- 1 5.0 0.0 3 10
- 0.2564 5 3 ack 40 ------- 1 5.0 0.0 3 10
r 0.25656 0 2 tcp 1040 ------- 1 0.0 5.0 6 9
+ 0.25656 2 3 tcp 1040 ------- 1 0.0 5.0 6 9
- 0.25656 2 3 tcp 1040 ------- 1 0.0 5.0 6 9
r 0.25856 2 3 tcp 1040 ------- 1 0.0 5.0 5 8
+ 0.25856 3 5 tcp 1040 ------- 1 0.0 5.0 5 8
- 0.25856 3 5 tcp 1040 ------- 1 0.0 5.0 5 8
r 0.25856 5 3 ack 40 ------- 1 5.0 0.0 3 10
+ 0.25856 3 2 ack 40 ------- 1 5.0 0.0 3 10
- 0.25856 3 2 ack 40 ------- 1 5.0 0.0 3 10
r 0.26056 3 5 tcp 1040 ------- 1 0.0 5.0 4 7
+ 0.26056 5 3 ack 40 ------- 1 5.0 0.0 4 11
- 0.26056 5 3 ack 40 ------- 1 5.0 0.0 4 11
r 0.26072 3 2 ack 40 ------- 1 5.0 0.0 3 10
+ 0.26072 2 0 ack 40 ------- 1 5.0 0.0 3 10
- 0.26072 2 0 ack 40 ------- 1 5.0 0.0 3 10
r 0.26272 2 3 tcp 1040 ------- 1 0.0 5.0 6 9
+ 0.26272 3 5 tcp 1040 ------- 1 0.0 5.0 6 9
- 0.26272 3 5 tcp 1040 ------- 1 0.0 5.0 6 9
r 0.26272 5 3 ack 40 ------- 1 5.0 0.0 4 11
+ 0.26272 3 2 ack 40 ------- 1 5.0 0.0 4 11
- 0.26272 3 2 ack 40 ------- 1 5.0 0.0 4 11
r 0.26288 2 0 ack 40 ------- 1 5.0 0.0 3 10
+ 0.26288 0 2 tcp 1040 ------- 1 0.0 5.0 7 12
- 0.26288 0 2 tcp 1040 ------- 1 0.0 5.0 7 12
+ 0.26288 0 2 tcp 1040 ------- 1 0.0 5.0 8 13
r 0.26472 3 5 tcp 1040 ------- 1 0.0 5.0 5 8
+ 0.26472 5 3 ack 40 ------- 1 5.0 0.0 5 14
- 0.26472 5 3 ack 40 ------- 1 5.0 0.0 5 14
r 0.26488 3 2 ack 40 ------- 1 5.0 0.0 4 11
+ 0.26488 2 0 ack 40 ------- 1 5.0 0.0 4 11
- 0.26488 2 0 ack 40 ------- 1 5.0 0.0 4 11
r 0.26688 5 3 ack 40 ------- 1 5.0 0.0 5 14
+ 0.26688 3 2 ack 40 ------- 1 5.0 0.0 5 14
- 0.26688 3 2 ack 40 ------- 1 5.0 0.0 5 14
- 0.26704 0 2 tcp 1040 ------- 1 0.0 5.0 8 13
r 0.26704 2 0 ack 40 ------- 1 5.0 0.0 4 11
+ 0.26704 0 2 tcp 1040 ------- 1 0.0 5.0 9 15
+ 0.26704 0 2 tcp 1040 ------- 1 0.0 5.0 10 16
r 0.26888 3 5 tcp 1040 ------- 1 0.0 5.0 6 9
+ 0.26888 5 3 ack 40 ------- 1 5.0 0.0 6 17
- 0.26888 5 3 ack 40 ------- 1 5.0 0.0 6 17
r 0.26904 0 2 tcp 1040 ------- 1 0.0 5.0 7 12
+ 0.26904 2 3 tcp 1040 ------- 1 0.0 5.0 7 12
- 0.26904 2 3 tcp 1040 ------- 1 0.0 5.0 7 12
r 0.26904 3 2 ack 40 ------- 1 5.0 0.0 5 14
+ 0.26904 2 0 ack 40 ------- 1 5.0 0.0 5 14
- 0.26904 2 0 ack 40 ------- 1 5.0 0.0 5 14
r 0.27104 5 3 ack 40 ------- 1 5.0 0.0 6 17
+ 0.27104 3 2 ack 40 ------- 1 5.0 0.0 6 17
- 0.27104 3 2 ack 40 ------- 1 5.0 0.0 6 17
- 0.2712 0 2 tcp 1040 ------- 1 0.0 5.0 9 15
r 0.2712 2 0 ack 40 ------- 1 5.0 0.0 5 14
+ 0.2712 0 2 tcp 1040 ------- 1 0.0 5.0 11 18
+ 0.2712 0 2 tcp 1040 ------- 1 0.0 5.0 12 19
r 0.2732 0 2 tcp 1040 ------- 1 0.0 5.0 8 13
+ 0.2732 2 3 tcp 1040 ------- 1 0.0 5.0 8 13
- 0.2732 2 3 tcp 1040 ------- 1 0.0 5.0 8 13
r 0.2732 3 2 ack 40 ------- 1 5.0 0.0 6 17
+ 0.2732 2 0 ack 40 ------- 1 5.0 0.0 6 17
- 0.2732 2 0 ack 40 ------- 1 5.0 0.0 6 17
r 0.2752 2 3 tcp 1040 ------- 1 0.0 5.0 7 12
+ 0.2752 3 5 tcp 1040 ------- 1 0.0 5.0 7 12
- 0.2752 3 5 tcp 1040 ------- 1 0.0 5.0 7 12
- 0.27536 0 2 tcp 1040 ------- 1 0.0 5.0 10 16
r 0.27536 2 0 ack 40 ------- 1 5.0 0.0 6 17
+ 0.27536 0 2 tcp 1040 ------- 1 0.0 5.0 13 20
+ 0.27536 0 2 tcp 1040 ------- 1 0.0 5.0 14 21
r 0.27736 0 2 tcp 1040 ------- 1 0.0 5.0 9 15
+ 0.27736 2 3 tcp 1040 ------- 1 0.0 5.0 9 15
- 0.27736 2 3 tcp 1040 ------- 1 0.0 5.0 9 15
r 0.27936 2 3 tcp 1040 ------- 1 0.0 5.0 8 13
+ 0.27936 3 5 tcp 1040 ------- 1 0.0 5.0 8 13
- 0.27936 3 5 tcp 1040 ------- 1 0.0 5.0 8 13
- 0.27952 0 2 tcp 1040 ------- 1 0.0 5.0 11 18
r 0.28136 3 5 tcp 1040 ------- 1 0.0 5.0 7 12
+ 0.28136 5 3 ack 40 ------- 1 5.0 0.0 7 22
- 0.28136 5 3 ack 40 ------- 1 5.0 0.0 7 22
r 0.28152 0 2 tcp 1040 ------- 1 0.0 5.0 10 16
+ 0.28152 2 3 tcp 1040 ------- 1 0.0 5.0 10 16
- 0.28152 2 3 tcp 1040 ------- 1 0.0 5.0 10 16
r 0.28352 2 3 tcp 1040 ------- 1 0.0 5.0 9 15
+ 0.28352 3 5 tcp 1040 ------- 1 0.0 5.0 9 15
- 0.28352 3 5 tcp 1040 ------- 1 0.0 5.0 9 15
r 0.28352 5 3 ack 40 ------- 1 5.0 0.0 7 22
+ 0.28352 3 2 ack 40 ------- 1 5.0 0.0 7 22
- 0.28352 3 2 ack 40 ------- 1 5.0 0.0 7 22
- 0.28368 0 2 tcp 1040 ------- 1 0.0 5.0 12 19
r 0.28552 3 5 tcp 1040 ------- 1 0.0 5.0 8 13
+ 0.28552 5 3 ack 40 ------- 1 5.0 0.0 8 23
- 0.28552 5 3 ack 40 ------- 1 5.0 0.0 8 23
r 0.28568 0 2 tcp 1040 ------- 1 0.0 5.0 11 18
+ 0.28568 2 3 tcp 1040 ------- 1 0.0 5.0 11 18
- 0.28568 2 3 tcp 1040 ------- 1 0.0 5.0 11 18
r 0.28568 3 2 ack 40 ------- 1 5.0 0.0 7 22
+ 0.28568 2 0 ack 40 ------- 1 5.0 0.0 7 22
- 0.28568 2 0 ack 40 ------- 1 5.0 0.0 7 22
r 0.28768 2 3 tcp 1040 ------- 1 0.0 5.0 10 16
+ 0.28768 3 5 tcp 1040 ------- 1 0.0 5.0 10 16
- 0.28768 3 5 tcp 1040 ------- 1 0.0 5.0 10 16
r 0.28768 5 3 ack 40 ------- 1 5.0 0.0 8 23
+ 0.28768 3 2 ack 40 ------- 1 5.0 0.0 8 23
- 0.28768 3 2 ack 40 ------- 1 5.0 0.0 8 23
- 0.28784 0 2 tcp 1040 ------- 1 0.0 5.0 13 20
r 0.28784 2 0 ack 40 ------- 1 5.0 0.0 7 22
+ 0.28784 0 2 tcp 1040 ------- 1 0.0 5.0 15 24
+ 0.28784 0 2 tcp 1040 ------- 1 0.0 5.0 16 25
r 0.28968 3 5 tcp 1040 ------- 1 0.0 5.0 9 15
+ 0.28968 5 3 ack 40 ------- 1 5.0 0.0 9 26
- 0.28968 5 3 ack 40 ------- 1 5.0 0.0 9 26
r 0.28984 0 2 tcp 1040 ------- 1 0.0 5.0 12 19
+ 0.28984 2 3 tcp 1040 ------- 1 0.0 5.0 12 19
- 0.28984 2 3 tcp 1040 ------- 1 0.0 5.0 12 19
r 0.28984 3 2 ack 40 ------- 1 5.0 0.0 8 23
+ 0.28984 2 0 ack 40 ------- 1 5.0 0.0 8 23
- 0.28984 2 0 ack 40 ------- 1 5.0 0.0 8 23
r 0.29184 2 3 tcp 1040 ------- 1 0.0 5.0 11 18
+ 0.29184 3 5 tcp 1040 ------- 1 0.0 5.0 11 18
- 0.29184 3 5 tcp 1040 ------- 1 0.0 5.0 11 18
r 0.29184 5 3 ack 40 ------- 1 5.0 0.0 9 26
+ 0.29184 3 2 ack 40 ------- 1 5.0 0.0 9 26
- 0.29184 3 2 ack 40 ------- 1 5.0 0.0 9 26
- 0.292 0 2 tcp 1040 ------- 1 0.0 5.0 14 21
r 0.292 2 0 ack 40 ------- 1 5.0 0.0 8 23
+ 0.292 0 2 tcp 1040 ------- 1 0.0 5.0 17 27
+ 0.292 0 2 tcp 1040 ------- 1 0.0 5.0 18 28
r 0.29384 3 5 tcp 1040 ------- 1 0.0 5.0 10 16
+ 0.29384 5 3 ack 40 ------- 1 5.0 0.0 10 29
- 0.29384 5 3 ack 40 ------- 1 5.0 0.0 10 29
r 0.294 0 2 tcp 1040 ------- 1 0.0 5.0 13 20
+ 0.294 2 3 tcp 1040 ------- 1 0.0 5.0 13 20
- 0.294 2 3 tcp 1040 ------- 1 0.0 5.0 13 20
r 0.294 3 2 ack 40 ------- 1 5.0 0.0 9 26
+ 0.294 2 0 ack 40 ------- 1 5.0 0.0 9 26
- 0.294 2 0 ack 40 ------- 1 5.0 0.0 9 26
r 0.296 2 3 tcp 1040 ------- 1 0.0 5.0 12 19
+ 0.296 3 5 tcp 1040 ------- 1 0.0 5.0 12 19
- 0.296 3 5 tcp 1040 ------- 1 0.0 5.0 12 19
r 0.296 5 3 ack 40 ------- 1 5.0 0.0 10 29
+ 0.296 3 2 ack 40 ------- 1 5.0 0.0 10 29
- 0.296 3 2 ack 40 ------- 1 5.0 0.0 10 29
- 0.29616 0 2 tcp 1040 ------- 1 0.0 5.0 15 24
r 0.29616 2 0 ack 40 ------- 1 5.0 0.0 9 26
+ 0.29616 0 2 tcp 1040 ------- 1 0.0 5.0 19 30
+ 0.29616 0 2 tcp 1040 ------- 1 0.0 5.0 20 31
r 0.298 3 5 tcp 1040 ------- 1 0.0 5.0 11 18
+ 0.298 5 3 ack 40 ------- 1 5.0 0.0 11 32
- 0.298 5 3 ack 40 ------- 1 5.0 0.0 11 32
r 0.29816 0 2 tcp 1040 ------- 1 0.0 5.0 14 21
+ 0.29816 2 3 tcp 1040 ------- 1 0.0 5.0 14 21
- 0.29816 2 3 tcp 1040 ------- 1 0.0 5.0 14 21
r 0.29816 3 2 ack 40 ------- 1 5.0 0.0 10 29
+ 0.29816 2 0 ack 40 ------- 1 5.0 0.0 10 29
- 0.29816 2 0 ack 40 ------- 1 5.0 0.0 10 29
r 0.30016 2 3 tcp 1040 ------- 1 0.0 5.0 13 20
+ 0.30016 3 5 tcp 1040 ------- 1 0.0 5.0 13 20
- 0.30016 3 5 tcp 1040 ------- 1 0.0 5.0 13 20
r 0.30016 5 3 ack 40 ------- 1 5.0 0.0 11 32
+ 0.30016 3 2 ack 40 ------- 1 5.0 0.0 11 32
- 0.30016 3 2 ack 40 ------- 1 5.0 0.0 11 32
- 0.30032 0 2 tcp 1040 ------- 1 0.0 5.0 16 25
r 0.30032 2 0 ack 40 ------- 1 5.0 0.0 10 29
+ 0.30032 0 2 tcp 1040 ------- 1 0.0 5.0 21 33
+ 0.30032 0 2 tcp 1040 ------- 1 0.0 5.0 22 34
r 0.30216 3 5 tcp 1040 ------- 1 0.0 5.0 12 19
+ 0.30216 5 3 ack 40 ------- 1 5.0 0.0 12 35
- 0.30216 5 3 ack 40 ------- 1 5.0 0.0 12 35
r 0.30232 0 2 tcp 1040 ------- 1 0.0 5.0 15 24
+ 0.30232 2 3 tcp 1040 ------- 1 0.0 5.0 15 24
- 0.30232 2 3 tcp 1040 ------- 1 0.0 5.0 15 24
r 0.30232 3 2 ack 40 ------- 1 5.0 0.0 11 32
+ 0.30232 2 0 ack 40 ------- 1 5.0 0.0 11 32
- 0.30232 2 0 ack 40 ------- 1 5.0 0.0 11 32
r 0.30432 2 3 tcp 1040 ------- 1 0.0 5.0 14 21
+ 0.30432 3 5 tcp 1040 ------- 1 0.0 5.0 14 21
- 0.30432 3 5 tcp 1040 ------- 1 0.0 5.0 14 21
r 0.30432 5 3 ack 40 ------- 1 5.0 0.0 12 35
+ 0.30432 3 2 ack 40 ------- 1 5.0 0.0 12 35
- 0.30432 3 2 ack 40 ------- 1 5.0 0.0 12 35
- 0.30448 0 2 tcp 1040 ------- 1 0.0 5.0 17 27
r 0.30448 2 0 ack 40 ------- 1 5.0 0.0 11 32
+ 0.30448 0 2 tcp 1040 ------- 1 0.0 5.0 23 36
+ 0.30448 0 2 tcp 1040 ------- 1 0.0 5.0 24 37
r 0.30632 3 5 tcp 1040 ------- 1 0.0 5.0 13 20
+ 0.30632 5 3 ack 40 ------- 1 5.0 0.0 13 38
- 0.30632 5 3 ack 40 ------- 1 5.0 0.0 13 38
r 0.30648 0 2 tcp 1040 ------- 1 0.0 5.0 16 25
+ 0.30648 2 3 tcp 1040 ------- 1 0.0 5.0 16 25
- 0.30648 2 3 tcp 1040 ------- 1 0.0 5.0 16 25
r 0.30648 3 2 ack 40 ------- 1 5.0 0.0 12 35
+ 0.30648 2 0 ack 40 ------- 1 5.0 0.0 12 35
- 0.30648 2 0 ack 40 ------- 1 5.0 0.0 12 35
r 0.30848 2 3 tcp 1040 ------- 1 0.0 5.0 15 24
+ 0.30848 3 5 tcp 1040 ------- 1 0.0 5.0 15 24
- 0.30848 3 5 tcp 1040 ------- 1 0.0 5.0 15 24
r 0.30848 5 3 ack 40 ------- 1 5.0 0.0 13 38
+ 0.30848 3 2 ack 40 ------- 1 5.0 0.0 13 38
- 0.30848 3 2 ack 40 ------- 1 5.0 0.0 13 38
- 0.30864 0 2 tcp 1040 ------- 1 0.0 5.0 18 28
r 0.30864 2 0 ack 40 ------- 1 5.0 0.0 12 35
+ 0.30864 0 2 tcp 1040 ------- 1 0.0 5.0 25 39
+ 0.30864 0 2 tcp 1040 ------- 1 0.0 5.0 26 40
r 0.31048 3 5 tcp 1040 ------- 1 0.0 5.0 14 21
+ 0.31048 5 3 ack 40 ------- 1 5.0 0.0 14 41
- 0.31048 5 3 ack 40 ------- 1 5.0 0.0 14 41
r 0.31064 0 2 tcp 1040 ------- 1 0.0 5.0 17 27
+ 0.31064 2 3 tcp 1040 ------- 1 0.0 5.0 17 27
- 0.31064 2 3 tcp 1040 ------- 1 0.0 5.0 17 27
r 0.31064 3 2 ack 40 ------- 1 5.0 0.0 13 38
+ 0.31064 2 0 ack 40 ------- 1 5.0 0.0 13 38
- 0.31064 2 0 ack 40 ------- 1 5.0 0.0 13 38
r 0.31264 2 3 tcp 1040 ------- 1 0.0 5.0 16 25
+ 0.31264 3 5 tcp 1040 ------- 1 0.0 5.0 16 25
- 0.31264 3 5 tcp 1040 ------- 1 0.0 5.0 16 25
r 0.31264 5 3 ack 40 ------- 1 5.0 0.0 14 41
+ 0.31264 3 2 ack 40 ------- 1 5.0 0.0 14 41
- 0.31264 3 2 ack 40 ------- 1 5.0 0.0 14 41
- 0.3128 0 2 tcp 1040 ------- 1 0.0 5.0 19 30
r 0.3128 2 0 ack 40 ------- 1 5.0 0.0 13 38
+ 0.3128 0 2 tcp 1040 ------- 1 0.0 5.0 27 42
+ 0.3128 0 2 tcp 1040 ------- 1 0.0 5.0 28 43
r 0.31464 3 5 tcp 1040 ------- 1 0.0 5.0 15 24
+ 0.31464 5 3 ack 40 ------- 1 5.0 0.0 15 44
- 0.31464 5 3 ack 40 ------- 1 5.0 0.0 15 44
r 0.3148 0 2 tcp 1040 ------- 1 0.0 5.0 18 28
+ 0.3148 2 3 tcp 1040 ------- 1 0.0 5.0 18 28
- 0.3148 2 3 tcp 1040 ------- 1 0.0 5.0 18 28
r 0.3148 3 2 ack 40 ------- 1 5.0 0.0 14 41
+ 0.3148 2 0 ack 40 ------- 1 5.0 0.0 14 41
- 0.3148 2 0 ack 40 ------- 1 5.0 0.0 14 41
r 0.3168 2 3 tcp 1040 ------- 1 0.0 5.0 17 27
+ 0.3168 3 5 tcp 1040 ------- 1 0.0 5.0 17 27
- 0.3168 3 5 tcp 1040 ------- 1 0.0 5.0 17 27
r 0.3168 5 3 ack 40 ------- 1 5.0 0.0 15 44
+ 0.3168 3 2 ack 40 ------- 1 5.0 0.0 15 44
- 0.3168 3 2 ack 40 ------- 1 5.0 0.0 15 44
- 0.31696 0 2 tcp 1040 ------- 1 0.0 5.0 20 31
r 0.31696 2 0 ack 40 ------- 1 5.0 0.0 14 41
+ 0.31696 0 2 tcp 1040 ------- 1 0.0 5.0 29 45
+ 0.31696 0 2 tcp 1040 ------- 1 0.0 5.0 30 46
r 0.3188 3 5 tcp 1040 ------- 1 0.0 5.0 16 25
+ 0.3188 5 3 ack 40 ------- 1 5.0 0.0 16 47
- 0.3188 5 3 ack 40 ------- 1 5.0 0.0 16 47
r 0.31896 0 2 tcp 1040 ------- 1 0.0 5.0 19 30
+ 0.31896 2 3 tcp 1040 ------- 1 0.0 5.0 19 30
- 0.31896 2 3 tcp 1040 ------- 1 0.0 5.0 19 30
r 0.31896 3 2 ack 40 ------- 1 5.0 0.0 15 44
+ 0.31896 2 0 ack 40 ------- 1 5.0 0.0 15 44
- 0.31896 2 0 ack 40 ------- 1 5.0 0.0 15 44
r 0.32096 2 3 tcp 1040 ------- 1 0.0 5.0 18 28
+ 0.32096 3 5 tcp 1040 ------- 1 0.0 5.0 18 28
- 0.32096 3 5 tcp 1040 ------- 1 0.0 5.0 18 28
r 0.32096 5 3 ack 40 ------- 1 5.0 0.0 16 47
+ 0.32096 3 2 ack 40 ------- 1 5.0 0.0 16 47
- 0.32096 3 2 ack 40 ------- 1 5.0 0.0 16 47
- 0.32112 0 2 tcp 1040 ------- 1 0.0 5.0 21 33
r 0.32112 2 0 ack 40 ------- 1 5.0 0.0 15 44
+ 0.32112 0 2 tcp 1040 ------- 1 0.0 5.0 31 48
+ 0.32112 0 2 tcp 1040 ------- 1 0.0 5.0 32 49
r 0.32296 3 5 tcp 1040 ------- 1 0.0 5.0 17 27
+ 0.32296 5 3 ack 40 ------- 1 5.0 0.0 17 50
- 0.32296 5 3 ack 40 ------- 1 5.0 0.0 17 50
r 0.32312 0 2 tcp 1040 ------- 1 0.0 5.0 20 31
+ 0.32312 2 3 tcp 1040 ------- 1 0.0 5.0 20 31
- 0.32312 2 3 tcp 1040 ------- 1 0.0 5.0 20 31
r 0.32312 3 2 ack 40 ------- 1 5.0 0.0 16 47
+ 0.32312 2 0 ack 40 ------- 1 5.0 0.0 16 47
- 0.32312 2 0 ack 40 ------- 1 5.0 0.0 16 47
r 0.32512 2 3 tcp 1040 ------- 1 0.0 5.0 19 30
+ 0.32512 3 5 tcp 1040 ------- 1 0.0 5.0 19 30
- 0.32512 3 5 tcp 1040 ------- 1 0.0 5.0 19 30
r 0.32512 5 3 ack 40 ------- 1 5.0 0.0 17 50
+ 0.32512 3 2 ack 40 ------- 1 5.0 0.0 17 50
- 0.32512 3 2 ack 40 ------- 1 5.0 0.0 17 50
- 0.32528 0 2 tcp 1040 ------- 1 0.0 5.0 22 34
r 0.32528 2 0 ack 40 ------- 1 5.0 0.0 16 47
+ 0.32528 0 2 tcp 1040 ------- 1 0.0 5.0 33 51
+ 0.32528 0 2 tcp 1040 ------- 1 0.0 5.0 34 52
r 0.32712 3 5 tcp 1040 ------- 1 0.0 5.0 18 28
+ 0.32712 5 3 ack 40 ------- 1 5.0 0.0 18 53
- 0.32712 5 3 ack 40 ------- 1 5.0 0.0 18 53
r 0.32728 0 2 tcp 1040 ------- 1 0.0 5.0 21 33
+ 0.32728 2 3 tcp 1040 ------- 1 0.0 5.0 21 33
- 0.32728 2 3 tcp 1040 ------- 1 0.0 5.0 21 33
r 0.32728 3 2 ack 40 ------- 1 5.0 0.0 17 50
+ 0.32728 2 0 ack 40 ------- 1 5.0 0.0 17 50
- 0.32728 2 0 ack 40 ------- 1 5.0 0.0 17 50
r 0.32928 2 3 tcp 1040 ------- 1 0.0 5.0 20 31
+ 0.32928 3 5 tcp 1040 ------- 1 0.0 5.0 20 31
- 0.32928 3 5 tcp 1040 ------- 1 0.0 5.0 20 31
r 0.32928 5 3 ack 40 ------- 1 5.0 0.0 18 53
+ 0.32928 3 2 ack 40 ------- 1 5.0 0.0 18 53
- 0.32928 3 2 ack 40 ------- 1 5.0 0.0 18 53
- 0.32944 0 2 tcp 1040 ------- 1 0.0 5.0 23 36
r 0.32944 2 0 ack 40 ------- 1 5.0 0.0 17 50
+ 0.32944 0 2 tcp 1040 ------- 1 0.0 5.0 35 54
+ 0.32944 0 2 tcp 1040 ------- 1 0.0 5.0 36 55
r 0.33128 3 5 tcp 1040 ------- 1 0.0 5.0 19 30
+ 0.33128 5 3 ack 40 ------- 1 5.0 0.0 19 56
- 0.33128 5 3 ack 40 ------- 1 5.0 0.0 19 56
r 0.33144 0 2 tcp 1040 ------- 1 0.0 5.0 22 34
+ 0.33144 2 3 tcp 1040 ------- 1 0.0 5.0 22 34
- 0.33144 2 3 tcp 1040 ------- 1 0.0 5.0 22 34
r 0.33144 3 2 ack 40 ------- 1 5.0 0.0 18 53
+ 0.33144 2 0 ack 40 ------- 1 5.0 0.0 18 53
- 0.33144 2 0 ack 40 ------- 1 5.0 0.0 18 53
r 0.33344 2 3 tcp 1040 ------- 1 0.0 5.0 21 33
+ 0.33344 3 5 tcp 1040 ------- 1 0.0 5.0 21 33
- 0.33344 3 5 tcp 1040 ------- 1 0.0 5.0 21 33
r 0.33344 5 3 ack 40 ------- 1 5.0 0.0 19 56
+ 0.33344 3 2 ack 40 ------- 1 5.0 0.0 19 56
- 0.33344 3 2 ack 40 ------- 1 5.0 0.0 19 56
- 0.3336 0 2 tcp 1040 ------- 1 0.0 5.0 24 37
r 0.3336 2 0 ack 40 ------- 1 5.0 0.0 18 53
+ 0.3336 0 2 tcp 1040 ------- 1 0.0 5.0 37 57
+ 0.3336 0 2 tcp 1040 ------- 1 0.0 5.0 38 58
r 0.33544 3 5 tcp 1040 ------- 1 0.0 5.0 20 31
+ 0.33544 5 3 ack 40 ------- 1 5.0 0.0 20 59
- 0.33544 5 3 ack 40 ------- 1 5.0 0.0 20 59
r 0.3356 0 2 tcp 1040 ------- 1 0.0 5.0 23 36
+ 0.3356 2 3 tcp 1040 ------- 1 0.0 5.0 23 36
- 0.3356 2 3 tcp 1040 ------- 1 0.0 5.0 23 36
r 0.3356 3 2 ack 40 ------- 1 5.0 0.0 19 56
+ 0.3356 2 0 ack 40 ------- 1 5.0 0.0 19 56
- 0.3356 2 0 ack 40 ------- 1 5.0 0.0 19 56
r 0.3376 2 3 tcp 1040 ------- 1 0.0 5.0 22 34
+ 0.3376 3 5 tcp 1040 ------- 1 0.0 5.0 22 34
- 0.3376 3 5 tcp 1040 ------- 1 0.0 5.0 22 34
r 0.3376 5 3 ack 40 ------- 1 5.0 0.0 20 59
+ 0.3376 3 2 ack 40 ------- 1 5.0 0.0 20 59
- 0.3376 3 2 ack 40 ------- 1 5.0 0.0 20 59
- 0.33776 0 2 tcp 1040 ------- 1 0.0 5.0 25 39
r 0.33776 2 0 ack 40 ------- 1 5.0 0.0 19 56
+ 0.33776 0 2 tcp 1040 ------- 1 0.0 5.0 39 60
r 0.3396 3 5 tcp 1040 ------- 1 0.0 5.0 21 33
+ 0.3396 5 3 ack 40 ------- 1 5.0 0.0 21 61
- 0.3396 5 3 ack 40 ------- 1 5.0 0.0 21 61
r 0.33976 0 2 tcp 1040 ------- 1 0.0 5.0 24 37
+ 0.33976 2 3 tcp 1040 ------- 1 0.0 5.0 24 37
- 0.33976 2 3 tcp 1040 ------- 1 0.0 5.0 24 37
r 0.33976 3 2 ack 40 ------- 1 5.0 0.0 20 59
+ 0.33976 2 0 ack 40 ------- 1 5.0 0.0 20 59
- 0.33976 2 0 ack 40 ------- 1 5.0 0.0 20 59
r 0.34176 2 3 tcp 1040 ------- 1 0.0 5.0 23 36
+ 0.34176 3 5 tcp 1040 ------- 1 0.0 5.0 23 36
- 0.34176 3 5 tcp 1040 ------- 1 0.0 5.0 23 36
r 0.34176 5 3 ack 40 ------- 1 5.0 0.0 21 61
+ 0.34176 3 2 ack 40 ------- 1 5.0 0.0 21 61
- 0.34176 3 2 ack 40 ------- 1 5.0 0.0 21 61
- 0.34192 0 2 tcp 1040 ------- 1 0.0 5.0 26 40
r 0.34192 2 0 ack 40 ------- 1 5.0 0.0 20 59
+ 0.34192 0 2 tcp 1040 ------- 1 0.0 5.0 40 62
r 0.34376 3 5 tcp 1040 ------- 1 0.0 5.0 22 34
+ 0.34376 5 3 ack 40 ------- 1 5.0 0.0 22 63
- 0.34376 5 3 ack 40 ------- 1 5.0 0.0 22 63
r 0.34392 0 2 tcp 1040 ------- 1 0.0 5.0 25 39
+ 0.34392 2 3 tcp 1040 ------- 1 0.0 5.0 25 39
- 0.34392 2 3 tcp 1040 ------- 1 0.0 5.0 25 39
r 0.34392 3 2 ack 40 ------- 1 5.0 0.0 21 61
+ 0.34392 2 0 ack 40 ------- 1 5.0 0.0 21 61
- 0.34392 2 0 ack 40 ------- 1 5.0 0.0 21 61
r 0.34592 2 3 tcp 1040 ------- 1 0.0 5.0 24 37
+ 0.34592 3 5 tcp 1040 ------- 1 0.0 5.0 24 37
- 0.34592 3 5 tcp 1040 ------- 1 0.0 5.0 24 37
r 0.34592 5 3 ack 40 ------- 1 5.0 0.0 22 63
+ 0.34592 3 2 ack 40 ------- 1 5.0 0.0 22 63
- 0.34592 3 2 ack 40 ------- 1 5.0 0.0 22 63
- 0.34608 0 2 tcp 1040 ------- 1 0.0 5.0 27 42
r 0.34608 2 0 ack 40 ------- 1 5.0 0.0 21 61
+ 0.34608 0 2 tcp 1040 ------- 1 0.0 5.0 41 64
r 0.34792 3 5 tcp 1040 ------- 1 0.0 5.0 23 36
+ 0.34792 5 3 ack 40 ------- 1 5.0 0.0 23 65
- 0.34792 5 3 ack 40 ------- 1 5.0 0.0 23 65
r 0.34808 0 2 tcp 1040 ------- 1 0.0 5.0 26 40
+ 0.34808 2 3 tcp 1040 ------- 1 0.0 5.0 26 40
- 0.34808 2 3 tcp 1040 ------- 1 0.0 5.0 26 40
r 0.34808 3 2 ack 40 ------- 1 5.0 0.0 22 63
+ 0.34808 2 0 ack 40 ------- 1 5.0 0.0 22 63
- 0.34808 2 0 ack 40 ------- 1 5.0 0.0 22 63
r 0.35008 2 3 tcp 1040 ------- 1 0.0 5.0 25 39
+ 0.35008 3 5 tcp 1040 ------- 1 0.0 5.0 25 39
- 0.35008 3 5 tcp 1040 ------- 1 0.0 5.0 25 39
r 0.35008 5 3 ack 40 ------- 1 5.0 0.0 23 65
+ 0.35008 3 2 ack 40 ------- 1 5.0 0.0 23 65
- 0.35008 3 2 ack 40 ------- 1 5.0 0.0 23 65
- 0.35024 0 2 tcp 1040 ------- 1 0.0 5.0 28 43
r 0.35024 2 0 ack 40 ------- 1 5.0 0.0 22 63
+ 0.35024 0 2 tcp 1040 ------- 1 0.0 5.0 42 66
r 0.35208 3 5 tcp 1040 ------- 1 0.0 5.0 24 37
+ 0.35208 5 3 ack 40 ------- 1 5.0 0.0 24 67
- 0.35208 5 3 ack 40 ------- 1 5.0 0.0 24 67
r 0.35224 0 2 tcp 1040 ------- 1 0.0 5.0 27 42
+ 0.35224 2 3 tcp 1040 ------- 1 0.0 5.0 27 42
- 0.35224 2 3 tcp 1040 ------- 1 0.0 5.0 27 42
r 0.35224 3 2 ack 40 ------- 1 5.0 0.0 23 65
+ 0.35224 2 0 ack 40 ------- 1 5.0 0.0 23 65
- 0.35224 2 0 ack 40 ------- 1 5.0 0.0 23 65
r 0.35424 2 3 tcp 1040 ------- 1 0.0 5.0 26 40
+ 0.35424 3 5 tcp 1040 ------- 1 0.0 5.0 26 40
- 0.35424 3 5 tcp 1040 ------- 1 0.0 5.0 26 40
r 0.35424 5 3 ack 40 ------- 1 5.0 0.0 24 67
+ 0.35424 3 2 ack 40 ------- 1 5.0 0.0 24 67
- 0.35424 3 2 ack 40 ------- 1 5.0 0.0 24 67
- 0.3544 0 2 tcp 1040 ------- 1 0.0 5.0 29 45
r 0.3544 2 0 ack 40 ------- 1 5.0 0.0 23 65
+ 0.3544 0 2 tcp 1040 ------- 1 0.0 5.0 43 68
r 0.35624 3 5 tcp 1040 ------- 1 0.0 5.0 25 39
+ 0.35624 5 3 ack 40 ------- 1 5.0 0.0 25 69
- 0.35624 5 3 ack 40 ------- 1 5.0 0.0 25 69
r 0.3564 0 2 tcp 1040 ------- 1 0.0 5.0 28 43
+ 0.3564 2 3 tcp 1040 ------- 1 0.0 5.0 28 43
- 0.3564 2 3 tcp 1040 ------- 1 0.0 5.0 28 43
r 0.3564 3 2 ack 40 ------- 1 5.0 0.0 24 67
+ 0.3564 2 0 ack 40 ------- 1 5.0 0.0 24 67
- 0.3564 2 0 ack 40 ------- 1 5.0 0.0 24 67
r 0.3584 2 3 tcp 1040 ------- 1 0.0 5.0 27 42
+ 0.3584 3 5 tcp 1040 ------- 1 0.0 5.0 27 42
- 0.3584 3 5 tcp 1040 ------- 1 0.0 5.0 27 42
r 0.3584 5 3 ack 40 ------- 1 5.0 0.0 25 69
+ 0.3584 3 2 ack 40 ------- 1 5.0 0.0 25 69
- 0.3584 3 2 ack 40 ------- 1 5.0 0.0 25 69
- 0.35856 0 2 tcp 1040 ------- 1 0.0 5.0 30 46
r 0.35856 2 0 ack 40 ------- 1 5.0 0.0 24 67
+ 0.35856 0 2 tcp 1040 ------- 1 0.0 5.0 44 70
r 0.3604 3 5 tcp 1040 ------- 1 0.0 5.0 26 40
+ 0.3604 5 3 ack 40 ------- 1 5.0 0.0 26 71
- 0.3604 5 3 ack 40 ------- 1 5.0 0.0 26 71
r 0.36056 0 2 tcp 1040 ------- 1 0.0 5.0 29 45
+ 0.36056 2 3 tcp 1040 ------- 1 0.0 5.0 29 45
- 0.36056 2 3 tcp 1040 ------- 1 0.0 5.0 29 45
r 0.36056 3 2 ack 40 ------- 1 5.0 0.0 25 69
+ 0.36056 2 0 ack 40 ------- 1 5.0 0.0 25 69
- 0.36056 2 0 ack 40 ------- 1 5.0 0.0 25 69
r 0.36256 2 3 tcp 1040 ------- 1 0.0 5.0 28 43
+ 0.36256 3 5 tcp 1040 ------- 1 0.0 5.0 28 43
- 0.36256 3 5 tcp 1040 ------- 1 0.0 5.0 28 43
r 0.36256 5 3 ack 40 ------- 1 5.0 0.0 26 71
+ 0.36256 3 2 ack 40 ------- 1 5.0 0.0 26 71
- 0.36256 3 2 ack 40 ------- 1 5.0 0.0 26 71
- 0.36272 0 2 tcp 1040 ------- 1 0.0 5.0 31 48
r 0.36272 2 0 ack 40 ------- 1 5.0 0.0 25 69
+ 0.36272 0 2 tcp 1040 ------- 1 0.0 5.0 45 72
r 0.36456 3 5 tcp 1040 ------- 1 0.0 5.0 27 42
+ 0.36456 5 3 ack 40 ------- 1 5.0 0.0 27 73
- 0.36456 5 3 ack 40 ------- 1 5.0 0.0 27 73
r 0.36472 0 2 tcp 1040 ------- 1 0.0 5.0 30 46
+ 0.36472 2 3 tcp 1040 ------- 1 0.0 5.0 30 46
- 0.36472 2 3 tcp 1040 ------- 1 0.0 5.0 30 46
r 0.36472 3 2 ack 40 ------- 1 5.0 0.0 26 71
+ 0.36472 2 0 ack 40 ------- 1 5.0 0.0 26 71
- 0.36472 2 0 ack 40 ------- 1 5.0 0.0 26 71
r 0.36672 2 3 tcp 1040 ------- 1 0.0 5.0 29 45
+ 0.36672 3 5 tcp 1040 ------- 1 0.0 5.0 29 45
- 0.36672 3 5 tcp 1040 ------- 1 0.0 5.0 29 45
r 0.36672 5 3 ack 40 ------- 1 5.0 0.0 27 73
+ 0.36672 3 2 ack 40 ------- 1 5.0 0.0 27 73
- 0.36672 3 2 ack 40 ------- 1 5.0 0.0 27 73
- 0.36688 0 2 tcp 1040 ------- 1 0.0 5.0 32 49
r 0.36688 2 0 ack 40 ------- 1 5.0 0.0 26 71
+ 0.36688 0 2 tcp 1040 ------- 1 0.0 5.0 46 74
r 0.36872 3 5 tcp 1040 ------- 1 0.0 5.0 28 43
+ 0.36872 5 3 ack 40 ------- 1 5.0 0.0 28 75
- 0.36872 5 3 ack 40 ------- 1 5.0 0.0 28 75
r 0.36888 0 2 tcp 1040 ------- 1 0.0 5.0 31 48
+ 0.36888 2 3 tcp 1040 ------- 1 0.0 5.0 31 48
- 0.36888 2 3 tcp 1040 ------- 1 0.0 5.0 31 48
r 0.36888 3 2 ack 40 ------- 1 5.0 0.0 27 73
+ 0.36888 2 0 ack 40 ------- 1 5.0 0.0 27 73
- 0.36888 2 0 ack 40 ------- 1 5.0 0.0 27 73
r 0.37088 2 3 tcp 1040 ------- 1 0.0 5.0 30 46
+ 0.37088 3 5 tcp 1040 ------- 1 0.0 5.0 30 46
- 0.37088 3 5 tcp 1040 ------- 1 0.0 5.0 30 46
r 0.37088 5 3 ack 40 ------- 1 5.0 0.0 28 75
+ 0.37088 3 2 ack 40 ------- 1 5.0 0.0 28 75
- 0.37088 3 2 ack 40 ------- 1 5.0 0.0 28 75
- 0.37104 0 2 tcp 1040 ------- 1 0.0 5.0 33 51
r 0.37104 2 0 ack 40 ------- 1 5.0 0.0 27 73
+ 0.37104 0 2 tcp 1040 ------- 1 0.0 5.0 47 76
r 0.37288 3 5 tcp 1040 ------- 1 0.0 5.0 29 45
+ 0.37288 5 3 ack 40 ------- 1 5.0 0.0 29 77
- 0.37288 5 3 ack 40 ------- 1 5.0 0.0 29 77
r 0.37304 0 2 tcp 1040 ------- 1 0.0 5.0 32 49
+ 0.37304 2 3 tcp 1040 ------- 1 0.0 5.0 32 49
- 0.37304 2 3 tcp 1040 ------- 1 0.0 5.0 32 49
r 0.37304 3 2 ack 40 ------- 1 5.0 0.0 28 75
+ 0.37304 2 0 ack 40 ------- 1 5.0 0.0 28 75
- 0.37304 2 0 ack 40 ------- 1 5.0 0.0 28 75
r 0.37504 2 3 tcp 1040 ------- 1 0.0 5.0 31 48
+ 0.37504 3 5 tcp 1040 ------- 1 0.0 5.0 31 48
- 0.37504 3 5 tcp 1040 ------- 1 0.0 5.0 31 48
r 0.37504 5 3 ack 40 ------- 1 5.0 0.0 29 77
+ 0.37504 3 2 ack 40 ------- 1 5.0 0.0 29 77
- 0.37504 3 2 ack 40 ------- 1 5.0 0.0 29 77
- 0.3752 0 2 tcp 1040 ------- 1 0.0 5.0 34 52
r 0.3752 2 0 ack 40 ------- 1 5.0 0.0 28 75
+ 0.3752 0 2 tcp 1040 ------- 1 0.0 5.0 48 78
r 0.37704 3 5 tcp 1040 ------- 1 0.0 5.0 30 46
+ 0.37704 5 3 ack 40 ------- 1 5.0 0.0 30 79
- 0.37704 5 3 ack 40 ------- 1 5.0 0.0 30 79
r 0.3772 0 2 tcp 1040 ------- 1 0.0 5.0 33 51
+ 0.3772 2 3 tcp 1040 ------- 1 0.0 5.0 33 51
- 0.3772 2 3 tcp 1040 ------- 1 0.0 5.0 33 51
r 0.3772 3 2 ack 40 ------- 1 5.0 0.0 29 77
+ 0.3772 2 0 ack 40 ------- 1 5.0 0.0 29 77
- 0.3772 2 0 ack 40 ------- 1 5.0 0.0 29 77
r 0.3792 2 3 tcp 1040 ------- 1 0.0 5.0 32 49
+ 0.3792 3 5 tcp 1040 ------- 1 0.0 5.0 32 49
- 0.3792 3 5 tcp 1040 ------- 1 0.0 5.0 32 49
r 0.3792 5 3 ack 40 ------- 1 5.0 0.0 30 79
+ 0.3792 3 2 ack 40 ------- 1 5.0 0.0 30 79
- 0.3792 3 2 ack 40 ------- 1 5.0 0.0 30 79
- 0.37936 0 2 tcp 1040 ------- 1 0.0 5.0 35 54
r 0.37936 2 0 ack 40 ------- 1 5.0 0.0 29 77
+ 0.37936 0 2 tcp 1040 ------- 1 0.0 5.0 49 80
r 0.3812 3 5 tcp 1040 ------- 1 0.0 5.0 31 48
+ 0.3812 5 3 ack 40 ------- 1 5.0 0.0 31 81
- 0.3812 5 3 ack 40 ------- 1 5.0 0.0 31 81
r 0.38136 0 2 tcp 1040 ------- 1 0.0 5.0 34 52
+ 0.38136 2 3 tcp 1040 ------- 1 0.0 5.0 34 52
- 0.38136 2 3 tcp 1040 ------- 1 0.0 5.0 34 52
r 0.38136 3 2 ack 40 ------- 1 5.0 0.0 30 79
+ 0.38136 2 0 ack 40 ------- 1 5.0 0.0 30 79
- 0.38136 2 0 ack 40 ------- 1 5.0 0.0 30 79
r 0.38336 2 3 tcp 1040 ------- 1 0.0 5.0 33 51
+ 0.38336 3 5 tcp 1040 ------- 1 0.0 5.0 33 51
- 0.38336 3 5 tcp 1040 ------- 1 0.0 5.0 33 51
r 0.38336 5 3 ack 40 ------- 1 5.0 0.0 31 81
+ 0.38336 3 2 ack 40 ------- 1 5.0 0.0 31 81
- 0.38336 3 2 ack 40 ------- 1 5.0 0.0 31 81
- 0.38352 0 2 tcp 1040 ------- 1 0.0 5.0 36 55
r 0.38352 2 0 ack 40 ------- 1 5.0 0.0 30 79
+ 0.38352 0 2 tcp 1040 ------- 1 0.0 5.0 50 82
r 0.38536 3 5 tcp 1040 ------- 1 0.0 5.0 32 49
+ 0.38536 5 3 ack 40 ------- 1 5.0 0.0 32 83
- 0.38536 5 3 ack 40 ------- 1 5.0 0.0 32 83
r 0.38552 0 2 tcp 1040 ------- 1 0.0 5.0 35 54
+ 0.38552 2 3 tcp 1040 ------- 1 0.0 5.0 35 54
- 0.38552 2 3 tcp 1040 ------- 1 0.0 5.0 35 54
r 0.38552 3 2 ack 40 ------- 1 5.0 0.0 31 81
+ 0.38552 2 0 ack 40 ------- 1 5.0 0.0 31 81
- 0.38552 2 0 ack 40 ------- 1 5.0 0.0 31 81
r 0.38752 2 3 tcp 1040 ------- 1 0.0 5.0 34 52
+ 0.38752 3 5 tcp 1040 ------- 1 0.0 5.0 34 52
- 0.38752 3 5 tcp 1040 ------- 1 0.0 5.0 34 52
r 0.38752 5 3 ack 40 ------- 1 5.0 0.0 32 83
+ 0.38752 3 2 ack 40 ------- 1 5.0 0.0 32 83
- 0.38752 3 2 ack 40 ------- 1 5.0 0.0 32 83
- 0.38768 0 2 tcp 1040 ------- 1 0.0 5.0 37 57
r 0.38768 2 0 ack 40 ------- 1 5.0 0.0 31 81
+ 0.38768 0 2 tcp 1040 ------- 1 0.0 5.0 51 84
r 0.38952 3 5 tcp 1040 ------- 1 0.0 5.0 33 51
+ 0.38952 5 3 ack 40 ------- 1 5.0 0.0 33 85
- 0.38952 5 3 ack 40 ------- 1 5.0 0.0 33 85
r 0.38968 0 2 tcp 1040 ------- 1 0.0 5.0 36 55
+ 0.38968 2 3 tcp 1040 ------- 1 0.0 5.0 36 55
- 0.38968 2 3 tcp 1040 ------- 1 0.0 5.0 36 55
r 0.38968 3 2 ack 40 ------- 1 5.0 0.0 32 83
+ 0.38968 2 0 ack 40 ------- 1 5.0 0.0 32 83
- 0.38968 2 0 ack 40 ------- 1 5.0 0.0 32 83
r 0.39168 2 3 tcp 1040 ------- 1 0.0 5.0 35 54
+ 0.39168 3 5 tcp 1040 ------- 1 0.0 5.0 35 54
- 0.39168 3 5 tcp 1040 ------- 1 0.0 5.0 35 54
r 0.39168 5 3 ack 40 ------- 1 5.0 0.0 33 85
+ 0.39168 3 2 ack 40 ------- 1 5.0 0.0 33 85
- 0.39168 3 2 ack 40 ------- 1 5.0 0.0 33 85
- 0.39184 0 2 tcp 1040 ------- 1 0.0 5.0 38 58
r 0.39184 2 0 ack 40 ------- 1 5.0 0.0 32 83
+ 0.39184 0 2 tcp 1040 ------- 1 0.0 5.0 52 86
r 0.39368 3 5 tcp 1040 ------- 1 0.0 5.0 34 52
+ 0.39368 5 3 ack 40 ------- 1 5.0 0.0 34 87
- 0.39368 5 3 ack 40 ------- 1 5.0 0.0 34 87
r 0.39384 0 2 tcp 1040 ------- 1 0.0 5.0 37 57
+ 0.39384 2 3 tcp 1040 ------- 1 0.0 5.0 37 57
- 0.39384 2 3 tcp 1040 ------- 1 0.0 5.0 37 57
r 0.39384 3 2 ack 40 ------- 1 5.0 0.0 33 85
+ 0.39384 2 0 ack 40 ------- 1 5.0 0.0 33 85
- 0.39384 2 0 ack 40 ------- 1 5.0 0.0 33 85
r 0.39584 2 3 tcp 1040 ------- 1 0.0 5.0 36 55
+ 0.39584 3 5 tcp 1040 ------- 1 0.0 5.0 36 55
- 0.39584 3 5 tcp 1040 ------- 1 0.0 5.0 36 55
r 0.39584 5 3 ack 40 ------- 1 5.0 0.0 34 87