M 0.00000 0 (5.00, 5.00, 0.00), (450.00, 285.00), 30.00
M 0.00000 1 (480.00, 285.00, 0.00), (200.00, 285.00), 30.00
M 0.00000 2 (150.00, 240.00, 0.00), (1.00, 285.00), 30.00
s 10.000000000 _0_ AGT  --- 0 tcp 40 [0 0 0 0] ------- [0:0 2:0 32 0] [0 0] 0 0
r 10.000000000 _0_ RTR  --- 0 tcp 40 [0 0 0 0] ------- [0:0 2:0 32 0] [0 0] 0 0
s 10.000000000 _0_ RTR  --- 0 AODV 48 [0 0 0 0] ------- [0:255 -1:255 30 0] [0x2 1 1 [2 0] [0 4]] (REQUEST)
s 10.000115000 _0_ MAC  --- 0 AODV 106 [0 ffffffff 0 800] ------- [0:255 -1:255 30 0] [0x2 1 1 [2 0] [0 4]] (REQUEST)
r 10.000963446 _1_ MAC  --- 0 AODV 48 [0 ffffffff 0 800] ------- [0:255 -1:255 30 0] [0x2 1 1 [2 0] [0 4]] (REQUEST)
r 10.000988446 _1_ RTR  --- 0 AODV 48 [0 ffffffff 0 800] ------- [0:255 -1:255 30 0] [0x2 1 1 [2 0] [0 4]] (REQUEST)
s 10.001869673 _1_ RTR  --- 0 AODV 48 [0 ffffffff 0 800] ------- [1:255 -1:255 29 0] [0x2 2 1 [2 0] [0 4]] (REQUEST)
s 10.002264673 _1_ MAC  --- 0 AODV 106 [0 ffffffff 1 800] ------- [1:255 -1:255 29 0] [0x2 2 1 [2 0] [0 4]] (REQUEST)
r 10.003113119 _0_ MAC  --- 0 AODV 48 [0 ffffffff 1 800] ------- [1:255 -1:255 29 0] [0x2 2 1 [2 0] [0 4]] (REQUEST)
r 10.003113336 _2_ MAC  --- 0 AODV 48 [0 ffffffff 1 800] ------- [1:255 -1:255 29 0] [0x2 2 1 [2 0] [0 4]] (REQUEST)
r 10.003138119 _0_ RTR  --- 0 AODV 48 [0 ffffffff 1 800] ------- [1:255 -1:255 29 0] [0x2 2 1 [2 0] [0 4]] (REQUEST)
r 10.003138336 _2_ RTR  --- 0 AODV 48 [0 ffffffff 1 800] ------- [1:255 -1:255 29 0] [0x2 2 1 [2 0] [0 4]] (REQUEST)
s 10.003138336 _2_ RTR  --- 0 AODV 44 [0 0 0 0] ------- [2:255 0:255 30 1] [0x4 1 [2 4] 10.000000] (REPLY)
s 10.003353336 _2_ MAC  --- 0 ARP 86 [0 ffffffff 2 806] ------- [REQUEST 2/2 0/1]
r 10.004042000 _1_ MAC  --- 0 ARP 28 [0 ffffffff 2 806] ------- [REQUEST 2/2 0/1]
s 10.004337000 _1_ MAC  --- 0 RTS 44 [52e 2 1 0] 
r 10.004689663 _2_ MAC  --- 0 RTS 44 [52e 2 1 0] 
s 10.004699663 _2_ MAC  --- 0 CTS 38 [3f4 1 0 0] 
r 10.005004326 _1_ MAC  --- 0 CTS 38 [3f4 1 0 0] 
s 10.005014326 _1_ MAC  --- 0 ARP 86 [13a 2 1 806] ------- [REPLY 1/1 2/2]
r 10.005702990 _2_ MAC  --- 0 ARP 28 [13a 2 1 806] ------- [REPLY 1/1 2/2]
s 10.005712990 _2_ MAC  --- 0 ACK 38 [0 1 0 0] 
r 10.006017653 _1_ MAC  --- 0 ACK 38 [0 1 0 0] 
s 10.006426990 _2_ MAC  --- 0 RTS 44 [5ae 1 2 0] 
r 10.006779653 _1_ MAC  --- 0 RTS 44 [5ae 1 2 0] 
s 10.006789653 _1_ MAC  --- 0 CTS 38 [474 2 0 0] 
r 10.007094316 _2_ MAC  --- 0 CTS 38 [474 2 0 0] 
s 10.007104316 _2_ MAC  --- 0 AODV 102 [13a 1 2 800] ------- [2:255 0:255 30 1] [0x4 1 [2 4] 10.000000] (REPLY)
r 10.007920980 _1_ MAC  --- 0 AODV 44 [13a 1 2 800] ------- [2:255 0:255 30 1] [0x4 1 [2 4] 10.000000] (REPLY)
s 10.007930980 _1_ MAC  --- 0 ACK 38 [0 2 0 0] 
r 10.007945980 _1_ RTR  --- 0 AODV 44 [13a 1 2 800] ------- [2:255 0:255 30 1] [0x4 1 [2 4] 10.000000] (REPLY)
f 10.007945980 _1_ RTR  --- 0 AODV 44 [13a 1 2 800] ------- [2:255 0:255 29 0] [0x4 2 [2 4] 10.000000] (REPLY)
r 10.008235643 _2_ MAC  --- 0 ACK 38 [0 2 0 0] 
s 10.008524980 _1_ MAC  --- 0 ARP 86 [0 ffffffff 1 806] ------- [REQUEST 1/1 0/0]
r 10.009213426 _0_ MAC  --- 0 ARP 28 [0 ffffffff 1 806] ------- [REQUEST 1/1 0/0]
r 10.009213643 _2_ MAC  --- 0 ARP 28 [0 ffffffff 1 806] ------- [REQUEST 1/1 0/0]
s 10.009428426 _0_ MAC  --- 0 RTS 44 [52e 1 0 0] 
r 10.009780872 _1_ MAC  --- 0 RTS 44 [52e 1 0 0] 
s 10.009790872 _1_ MAC  --- 0 CTS 38 [3f4 0 0 0] 
r 10.010095318 _0_ MAC  --- 0 CTS 38 [3f4 0 0 0] 
s 10.010105318 _0_ MAC  --- 0 ARP 86 [13a 1 0 806] ------- [REPLY 0/0 1/1]
r 10.010793765 _1_ MAC  --- 0 ARP 28 [13a 1 0 806] ------- [REPLY 0/0 1/1]
s 10.010803765 _1_ MAC  --- 0 ACK 38 [0 0 0 0] 
r 10.011108211 _0_ MAC  --- 0 ACK 38 [0 0 0 0] 
s 10.011537765 _1_ MAC  --- 0 RTS 44 [5ae 0 1 0] 
r 10.011890211 _0_ MAC  --- 0 RTS 44 [5ae 0 1 0] 
s 10.011900211 _0_ MAC  --- 0 CTS 38 [474 1 0 0] 
r 10.012204657 _1_ MAC  --- 0 CTS 38 [474 1 0 0] 
s 10.012214657 _1_ MAC  --- 0 AODV 102 [13a 0 1 800] ------- [2:255 0:255 29 0] [0x4 2 [2 4] 10.000000] (REPLY)
r 10.013031103 _0_ MAC  --- 0 AODV 44 [13a 0 1 800] ------- [2:255 0:255 29 0] [0x4 2 [2 4] 10.000000] (REPLY)
s 10.013041103 _0_ MAC  --- 0 ACK 38 [0 1 0 0] 
r 10.013056103 _0_ RTR  --- 0 AODV 44 [13a 0 1 800] ------- [2:255 0:255 29 0] [0x4 2 [2 4] 10.000000] (REPLY)
s 10.013056103 _0_ RTR  --- 0 tcp 40 [0 0 0 0] ------- [0:0 2:0 30 1] [0 0] 0 0
r 10.013345549 _1_ MAC  --- 0 ACK 38 [0 1 0 0] 
s 10.013635103 _0_ MAC  --- 0 RTS 44 [58e 1 0 0] 
r 10.013987549 _1_ MAC  --- 0 RTS 44 [58e 1 0 0] 
s 10.013997549 _1_ MAC  --- 0 CTS 38 [454 0 0 0] 
r 10.014301995 _0_ MAC  --- 0 CTS 38 [454 0 0 0] 
s 10.014311995 _0_ MAC  --- 0 tcp 98 [13a 1 0 800] ------- [0:0 2:0 30 1] [0 0] 0 0
r 10.015096442 _1_ MAC  --- 0 tcp 40 [13a 1 0 800] ------- [0:0 2:0 30 1] [0 0] 1 0
s 10.015106442 _1_ MAC  --- 0 ACK 38 [0 0 0 0] 
r 10.015121442 _1_ RTR  --- 0 tcp 40 [13a 1 0 800] ------- [0:0 2:0 30 1] [0 0] 1 0
f 10.015121442 _1_ RTR  --- 0 tcp 40 [13a 1 0 800] ------- [0:0 2:0 29 2] [0 0] 1 0
r 10.015410888 _0_ MAC  --- 0 ACK 38 [0 0 0 0] 
s 10.015940442 _1_ MAC  --- 0 RTS 44 [58e 2 1 0] 
r 10.016293105 _2_ MAC  --- 0 RTS 44 [58e 2 1 0] 
s 10.016303105 _2_ MAC  --- 0 CTS 38 [454 1 0 0] 
r 10.016607768 _1_ MAC  --- 0 CTS 38 [454 1 0 0] 
s 10.016617768 _1_ MAC  --- 0 tcp 98 [13a 2 1 800] ------- [0:0 2:0 29 2] [0 0] 1 0
r 10.017402432 _2_ MAC  --- 0 tcp 40 [13a 2 1 800] ------- [0:0 2:0 29 2] [0 0] 2 0
s 10.017412432 _2_ MAC  --- 0 ACK 38 [0 1 0 0] 
r 10.017427432 _2_ AGT  --- 0 tcp 40 [13a 2 1 800] ------- [0:0 2:0 29 2] [0 0] 2 0
s 10.017427432 _2_ AGT  --- 1 ack 40 [0 0 0 0] ------- [2:0 0:0 32 0] [0 0] 0 0
r 10.017427432 _2_ RTR  --- 1 ack 40 [0 0 0 0] ------- [2:0 0:0 32 0] [0 0] 0 0
s 10.017427432 _2_ RTR  --- 1 ack 40 [0 0 0 0] ------- [2:0 0:0 30 1] [0 0] 0 0
r 10.017717095 _1_ MAC  --- 0 ACK 38 [0 1 0 0] 
s 10.018086432 _2_ MAC  --- 0 RTS 44 [58e 1 2 0] 
r 10.018439095 _1_ MAC  --- 0 RTS 44 [58e 1 2 0] 
s 10.018449095 _1_ MAC  --- 0 CTS 38 [454 2 0 0] 
r 10.018753758 _2_ MAC  --- 0 CTS 38 [454 2 0 0] 
s 10.018763758 _2_ MAC  --- 1 ack 98 [13a 1 2 800] ------- [2:0 0:0 30 1] [0 0] 0 0
r 10.019548422 _1_ MAC  --- 1 ack 40 [13a 1 2 800] ------- [2:0 0:0 30 1] [0 0] 1 0
s 10.019558422 _1_ MAC  --- 0 ACK 38 [0 2 0 0] 
r 10.019573422 _1_ RTR  --- 1 ack 40 [13a 1 2 800] ------- [2:0 0:0 30 1] [0 0] 1 0
f 10.019573422 _1_ RTR  --- 1 ack 40 [13a 1 2 800] ------- [2:0 0:0 29 0] [0 0] 1 0
r 10.019863085 _2_ MAC  --- 0 ACK 38 [0 2 0 0] 
s 10.020132422 _1_ MAC  --- 0 RTS 44 [58e 0 1 0] 
r 10.020484868 _0_ MAC  --- 0 RTS 44 [58e 0 1 0] 
s 10.020494868 _0_ MAC  --- 0 CTS 38 [454 1 0 0] 
r 10.020799314 _1_ MAC  --- 0 CTS 38 [454 1 0 0] 
s 10.020809314 _1_ MAC  --- 1 ack 98 [13a 0 1 800] ------- [2:0 0:0 29 0] [0 0] 1 0
r 10.021593760 _0_ MAC  --- 1 ack 40 [13a 0 1 800] ------- [2:0 0:0 29 0] [0 0] 2 0
s 10.021603760 _0_ MAC  --- 0 ACK 38 [0 1 0 0] 
r 10.021618760 _0_ AGT  --- 1 ack 40 [13a 0 1 800] ------- [2:0 0:0 29 0] [0 0] 2 0
s 10.021618760 _0_ AGT  --- 2 tcp 1040 [0 0 0 0] ------- [0:0 2:0 32 0] [1 0] 0 0
r 10.021618760 _0_ RTR  --- 2 tcp 1040 [0 0 0 0] ------- [0:0 2:0 32 0] [1 0] 0 0
s 10.021618760 _0_ AGT  --- 3 tcp 1040 [0 0 0 0] ------- [0:0 2:0 32 0] [2 0] 0 0
r 10.021618760 _0_ RTR  --- 3 tcp 1040 [0 0 0 0] ------- [0:0 2:0 32 0] [2 0] 0 0
s 10.021618760 _0_ RTR  --- 2 tcp 1040 [0 0 0 0] ------- [0:0 2:0 30 1] [1 0] 0 0
s 10.021618760 _0_ RTR  --- 3 tcp 1040 [0 0 0 0] ------- [0:0 2:0 30 1] [2 0] 0 0
r 10.021908206 _1_ MAC  --- 0 ACK 38 [0 1 0 0] 
s 10.022197760 _0_ MAC  --- 0 RTS 44 [24ce 1 0 0] 
r 10.022550206 _1_ MAC  --- 0 RTS 44 [24ce 1 0 0] 
s 10.022560206 _1_ MAC  --- 0 CTS 38 [2394 0 0 0] 
r 10.022864652 _0_ MAC  --- 0 CTS 38 [2394 0 0 0] 
s 10.022874652 _0_ MAC  --- 2 tcp 1098 [13a 1 0 800] ------- [0:0 2:0 30 1] [1 0] 0 0
r 10.031659098 _1_ MAC  --- 2 tcp 1040 [13a 1 0 800] ------- [0:0 2:0 30 1] [1 0] 1 0
s 10.031669098 _1_ MAC  --- 0 ACK 38 [0 0 0 0] 
r 10.031684098 _1_ RTR  --- 2 tcp 1040 [13a 1 0 800] ------- [0:0 2:0 30 1] [1 0] 1 0
f 10.031684098 _1_ RTR  --- 2 tcp 1040 [13a 1 0 800] ------- [0:0 2:0 29 2] [1 0] 1 0
r 10.031973544 _0_ MAC  --- 0 ACK 38 [0 0 0 0] 
s 10.032203544 _0_ MAC  --- 0 RTS 44 [24ce 1 0 0] 
r 10.032555990 _1_ MAC  --- 0 RTS 44 [24ce 1 0 0] 
s 10.032565990 _1_ MAC  --- 0 CTS 38 [2394 0 0 0] 
r 10.032870436 _0_ MAC  --- 0 CTS 38 [2394 0 0 0] 
s 10.032880436 _0_ MAC  --- 3 tcp 1098 [13a 1 0 800] ------- [0:0 2:0 30 1] [2 0] 0 0
r 10.041664882 _1_ MAC  --- 3 tcp 1040 [13a 1 0 800] ------- [0:0 2:0 30 1] [2 0] 1 0
s 10.041674882 _1_ MAC  --- 0 ACK 38 [0 0 0 0] 
r 10.041689882 _1_ RTR  --- 3 tcp 1040 [13a 1 0 800] ------- [0:0 2:0 30 1] [2 0] 1 0
f 10.041689882 _1_ RTR  --- 3 tcp 1040 [13a 1 0 800] ------- [0:0 2:0 29 2] [2 0] 1 0
r 10.041979328 _0_ MAC  --- 0 ACK 38 [0 0 0 0] 
s 10.042068882 _1_ MAC  --- 0 RTS 44 [24ce 2 1 0] 
r 10.042421545 _2_ MAC  --- 0 RTS 44 [24ce 2 1 0] 
s 10.042431545 _2_ MAC  --- 0 CTS 38 [2394 1 0 0] 
r 10.042736209 _1_ MAC  --- 0 CTS 38 [2394 1 0 0] 
s 10.042746209 _1_ MAC  --- 2 tcp 1098 [13a 2 1 800] ------- [0:0 2:0 29 2] [1 0] 1 0
r 10.051530872 _2_ MAC  --- 2 tcp 1040 [13a 2 1 800] ------- [0:0 2:0 29 2] [1 0] 2 0
s 10.051540872 _2_ MAC  --- 0 ACK 38 [0 1 0 0] 
r 10.051555872 _2_ AGT  --- 2 tcp 1040 [13a 2 1 800] ------- [0:0 2:0 29 2] [1 0] 2 0
s 10.051555872 _2_ AGT  --- 4 ack 40 [0 0 0 0] ------- [2:0 0:0 32 0] [1 0] 0 0
r 10.051555872 _2_ RTR  --- 4 ack 40 [0 0 0 0] ------- [2:0 0:0 32 0] [1 0] 0 0
s 10.051555872 _2_ RTR  --- 4 ack 40 [0 0 0 0] ------- [2:0 0:0 30 1] [1 0] 0 0
r 10.051845535 _1_ MAC  --- 0 ACK 38 [0 1 0 0] 
s 10.052294872 _2_ MAC  --- 0 RTS 44 [58e 1 2 0] 
r 10.052647535 _1_ MAC  --- 0 RTS 44 [58e 1 2 0] 
s 10.052657535 _1_ MAC  --- 0 CTS 38 [454 2 0 0] 
r 10.052962199 _2_ MAC  --- 0 CTS 38 [454 2 0 0] 
s 10.052972199 _2_ MAC  --- 4 ack 98 [13a 1 2 800] ------- [2:0 0:0 30 1] [1 0] 0 0
r 10.053756862 _1_ MAC  --- 4 ack 40 [13a 1 2 800] ------- [2:0 0:0 30 1] [1 0] 1 0
s 10.053766862 _1_ MAC  --- 0 ACK 38 [0 2 0 0] 
r 10.053781862 _1_ RTR  --- 4 ack 40 [13a 1 2 800] ------- [2:0 0:0 30 1] [1 0] 1 0
f 10.053781862 _1_ RTR  --- 4 ack 40 [13a 1 2 800] ------- [2:0 0:0 29 0] [1 0] 1 0
r 10.054071525 _2_ MAC  --- 0 ACK 38 [0 2 0 0] 
s 10.054260862 _1_ MAC  --- 0 RTS 44 [24ce 2 1 0] 
r 10.054613525 _2_ MAC  --- 0 RTS 44 [24ce 2 1 0] 
s 10.054623525 _2_ MAC  --- 0 CTS 38 [2394 1 0 0] 
r 10.054928189 _1_ MAC  --- 0 CTS 38 [2394 1 0 0] 
s 10.054938189 _1_ MAC  --- 3 tcp 1098 [13a 2 1 800] ------- [0:0 2:0 29 2] [2 0] 1 0
r 10.063722852 _2_ MAC  --- 3 tcp 1040 [13a 2 1 800] ------- [0:0 2:0 29 2] [2 0] 2 0
s 10.063732852 _2_ MAC  --- 0 ACK 38 [0 1 0 0] 
r 10.063747852 _2_ AGT  --- 3 tcp 1040 [13a 2 1 800] ------- [0:0 2:0 29 2] [2 0] 2 0
s 10.063747852 _2_ AGT  --- 5 ack 40 [0 0 0 0] ------- [2:0 0:0 32 0] [2 0] 0 0
r 10.063747852 _2_ RTR  --- 5 ack 40 [0 0 0 0] ------- [2:0 0:0 32 0] [2 0] 0 0
s 10.063747852 _2_ RTR  --- 5 ack 40 [0 0 0 0] ------- [2:0 0:0 30 1] [2 0] 0 0
r 10.064037515 _1_ MAC  --- 0 ACK 38 [0 1 0 0] 
s 10.064127515 _1_ MAC  --- 0 RTS 44 [58e 0 1 0] 
r 10.064479961 _0_ MAC  --- 0 RTS 44 [58e 0 1 0] 
s 10.064489961 _0_ MAC  --- 0 CTS 38 [454 1 0 0] 
r 10.064794407 _1_ MAC  --- 0 CTS 38 [454 1 0 0] 
s 10.064804407 _1_ MAC  --- 4 ack 98 [13a 0 1 800] ------- [2:0 0:0 29 0] [1 0] 1 0
r 10.065588852 _0_ MAC  --- 4 ack 40 [13a 0 1 800] ------- [2:0 0:0 29 0] [1 0] 2 0
s 10.065598852 _0_ MAC  --- 0 ACK 38 [0 1 0 0] 
r 10.065613852 _0_ AGT  --- 4 ack 40 [13a 0 1 800] ------- [2:0 0:0 29 0] [1 0] 2 0
s 10.065613852 _0_ AGT  --- 6 tcp 1040 [0 0 0 0] ------- [0:0 2:0 32 0] [3 0] 0 0
r 10.065613852 _0_ RTR  --- 6 tcp 1040 [0 0 0 0] ------- [0:0 2:0 32 0] [3 0] 0 0
s 10.065613852 _0_ AGT  --- 7 tcp 1040 [0 0 0 0] ------- [0:0 2:0 32 0] [4 0] 0 0
r 10.065613852 _0_ RTR  --- 7 tcp 1040 [0 0 0 0] ------- [0:0 2:0 32 0] [4 0] 0 0
s 10.065613852 _0_ RTR  --- 6 tcp 1040 [0 0 0 0] ------- [0:0 2:0 30 1] [3 0] 0 0
s 10.065613852 _0_ RTR  --- 7 tcp 1040 [0 0 0 0] ------- [0:0 2:0 30 1] [4 0] 0 0
r 10.065903298 _1_ MAC  --- 0 ACK 38 [0 1 0 0] 
s 10.066412852 _0_ MAC  --- 0 RTS 44 [24ce 1 0 0] 
r 10.066765298 _1_ MAC  --- 0 RTS 44 [24ce 1 0 0] 
s 10.066775298 _1_ MAC  --- 0 CTS 38 [2394 0 0 0] 
r 10.067079744 _0_ MAC  --- 0 CTS 38 [2394 0 0 0] 
s 10.067089744 _0_ MAC  --- 6 tcp 1098 [13a 1 0 800] ------- [0:0 2:0 30 1] [3 0] 0 0
r 10.075874189 _1_ MAC  --- 6 tcp 1040 [13a 1 0 800] ------- [0:0 2:0 30 1] [3 0] 1 0
s 10.075884189 _1_ MAC  --- 0 ACK 38 [0 0 0 0] 
r 10.075899189 _1_ RTR  --- 6 tcp 1040 [13a 1 0 800] ------- [0:0 2:0 30 1] [3 0] 1 0
f 10.075899189 _1_ RTR  --- 6 tcp 1040 [13a 1 0 800] ------- [0:0 2:0 29 2] [3 0] 1 0
r 10.076188635 _0_ MAC  --- 0 ACK 38 [0 0 0 0] 
s 10.076378635 _0_ MAC  --- 0 RTS 44 [24ce 1 0 0] 
r 10.076731080 _1_ MAC  --- 0 RTS 44 [24ce 1 0 0] 
s 10.076741080 _1_ MAC  --- 0 CTS 38 [2394 0 0 0] 
r 10.077045526 _0_ MAC  --- 0 CTS 38 [2394 0 0 0] 
s 10.077055526 _0_ MAC  --- 7 tcp 1098 [13a 1 0 800] ------- [0:0 2:0 30 1] [4 0] 0 0
r 10.085839971 _1_ MAC  --- 7 tcp 1040 [13a 1 0 800] ------- [0:0 2:0 30 1] [4 0] 1 0
s 10.085849971 _1_ MAC  --- 0 ACK 38 [0 0 0 0] 
r 10.085864971 _1_ RTR  --- 7 tcp 1040 [13a 1 0 800] ------- [0:0 2:0 30 1] [4 0] 1 0
f 10.085864971 _1_ RTR  --- 7 tcp 1040 [13a 1 0 800] ------- [0:0 2:0 29 2] [4 0] 1 0
r 10.086154417 _0_ MAC  --- 0 ACK 38 [0 0 0 0] 
s 10.086274479 _2_ MAC  --- 0 RTS 44 [58e 1 2 0] 
r 10.086627142 _1_ MAC  --- 0 RTS 44 [58e 1 2 0] 
s 10.086637142 _1_ MAC  --- 0 CTS 38 [454 2 0 0] 
r 10.086941805 _2_ MAC  --- 0 CTS 38 [454 2 0 0] 
s 10.086951805 _2_ MAC  --- 5 ack 98 [13a 1 2 800] ------- [2:0 0:0 30 1] [2 0] 0 0
r 10.087736469 _1_ MAC  --- 5 ack 40 [13a 1 2 800] ------- [2:0 0:0 30 1] [2 0] 1 0
s 10.087746469 _1_ MAC  --- 0 ACK 38 [0 2 0 0] 
r 10.087761469 _1_ RTR  --- 5 ack 40 [13a 1 2 800] ------- [2:0 0:0 30 1] [2 0] 1 0
f 10.087761469 _1_ RTR  --- 5 ack 40 [13a 1 2 800] ------- [2:0 0:0 29 0] [2 0] 1 0
r 10.088051132 _2_ MAC  --- 0 ACK 38 [0 2 0 0] 
s 10.088260469 _1_ MAC  --- 0 RTS 44 [24ce 2 1 0] 
r 10.088613132 _2_ MAC  --- 0 RTS 44 [24ce 2 1 0] 
s 10.088623132 _2_ MAC  --- 0 CTS 38 [2394 1 0 0] 
r 10.088927795 _1_ MAC  --- 0 CTS 38 [2394 1 0 0] 
s 10.088937795 _1_ MAC  --- 6 tcp 1098 [13a 2 1 800] ------- [0:0 2:0 29 2] [3 0] 1 0
r 10.097722459 _2_ MAC  --- 6 tcp 1040 [13a 2 1 800] ------- [0:0 2:0 29 2] [3 0] 2 0
s 10.097732459 _2_ MAC  --- 0 ACK 38 [0 1 0 0] 
r 10.097747459 _2_ AGT  --- 6 tcp 1040 [13a 2 1 800] ------- [0:0 2:0 29 2] [3 0] 2 0
s 10.097747459 _2_ AGT  --- 8 ack 40 [0 0 0 0] ------- [2:0 0:0 32 0] [3 0] 0 0
r 10.097747459 _2_ RTR  --- 8 ack 40 [0 0 0 0] ------- [2:0 0:0 32 0] [3 0] 0 0
s 10.097747459 _2_ RTR  --- 8 ack 40 [0 0 0 0] ------- [2:0 0:0 30 1] [3 0] 0 0
r 10.098037122 _1_ MAC  --- 0 ACK 38 [0 1 0 0] 
s 10.098226459 _2_ MAC  --- 0 RTS 44 [58e 1 2 0] 
r 10.098579122 _1_ MAC  --- 0 RTS 44 [58e 1 2 0] 
s 10.098589122 _1_ MAC  --- 0 CTS 38 [454 2 0 0] 
r 10.098893785 _2_ MAC  --- 0 CTS 38 [454 2 0 0] 
s 10.098903785 _2_ MAC  --- 8 ack 98 [13a 1 2 800] ------- [2:0 0:0 30 1] [3 0] 0 0
r 10.099688449 _1_ MAC  --- 8 ack 40 [13a 1 2 800] ------- [2:0 0:0 30 1] [3 0] 1 0
s 10.099698449 _1_ MAC  --- 0 ACK 38 [0 2 0 0] 
r 10.099713449 _1_ RTR  --- 8 ack 40 [13a 1 2 800] ------- [2:0 0:0 30 1] [3 0] 1 0
f 10.099713449 _1_ RTR  --- 8 ack 40 [13a 1 2 800] ------- [2:0 0:0 29 0] [3 0] 1 0
r 10.100003112 _2_ MAC  --- 0 ACK 38 [0 2 0 0] 
s 10.100112449 _1_ MAC  --- 0 RTS 44 [58e 0 1 0] 
r 10.100464894 _0_ MAC  --- 0 RTS 44 [58e 0 1 0] 
s 10.100474894 _0_ MAC  --- 0 CTS 38 [454 1 0 0] 
r 10.100779339 _1_ MAC  --- 0 CTS 38 [454 1 0 0] 
s 10.100789339 _1_ MAC  --- 5 ack 98 [13a 0 1 800] ------- [2:0 0:0 29 0] [2 0] 1 0
r 10.101573785 _0_ MAC  --- 5 ack 40 [13a 0 1 800] ------- [2:0 0:0 29 0] [2 0] 2 0
s 10.101583785 _0_ MAC  --- 0 ACK 38 [0 1 0 0] 
r 10.101598785 _0_ AGT  --- 5 ack 40 [13a 0 1 800] ------- [2:0 0:0 29 0] [2 0] 2 0
s 10.101598785 _0_ AGT  --- 9 tcp 1040 [0 0 0 0] ------- [0:0 2:0 32 0] [5 0] 0 0
r 10.101598785 _0_ RTR  --- 9 tcp 1040 [0 0 0 0] ------- [0:0 2:0 32 0] [5 0] 0 0
s 10.101598785 _0_ AGT  --- 10 tcp 1040 [0 0 0 0] ------- [0:0 2:0 32 0] [6 0] 0 0
r 10.101598785 _0_ RTR  --- 10 tcp 1040 [0 0 0 0] ------- [0:0 2:0 32 0] [6 0] 0 0
s 10.101598785 _0_ RTR  --- 9 tcp 1040 [0 0 0 0] ------- [0:0 2:0 30 1] [5 0] 0 0
s 10.101598785 _0_ RTR  --- 10 tcp 1040 [0 0 0 0] ------- [0:0 2:0 30 1] [6 0] 0 0
r 10.101888230 _1_ MAC  --- 0 ACK 38 [0 1 0 0] 
s 10.102158230 _1_ MAC  --- 0 RTS 44 [58e 0 1 0] 
r 10.102510675 _0_ MAC  --- 0 RTS 44 [58e 0 1 0] 
s 10.102520675 _0_ MAC  --- 0 CTS 38 [454 1 0 0] 
r 10.102825121 _1_ MAC  --- 0 CTS 38 [454 1 0 0] 
s 10.102835121 _1_ MAC  --- 8 ack 98 [13a 0 1 800] ------- [2:0 0:0 29 0] [3 0] 1 0
r 10.103619566 _0_ MAC  --- 8 ack 40 [13a 0 1 800] ------- [2:0 0:0 29 0] [3 0] 2 0
s 10.103629566 _0_ MAC  --- 0 ACK 38 [0 1 0 0] 
r 10.103644566 _0_ AGT  --- 8 ack 40 [13a 0 1 800] ------- [2:0 0:0 29 0] [3 0] 2 0
s 10.103644566 _0_ AGT  --- 11 tcp 1040 [0 0 0 0] ------- [0:0 2:0 32 0] [7 0] 0 0
r 10.103644566 _0_ RTR  --- 11 tcp 1040 [0 0 0 0] ------- [0:0 2:0 32 0] [7 0] 0 0
s 10.103644566 _0_ AGT  --- 12 tcp 1040 [0 0 0 0] ------- [0:0 2:0 32 0] [8 0] 0 0
r 10.103644566 _0_ RTR  --- 12 tcp 1040 [0 0 0 0] ------- [0:0 2:0 32 0] [8 0] 0 0
s 10.103644566 _0_ RTR  --- 11 tcp 1040 [0 0 0 0] ------- [0:0 2:0 30 1] [7 0] 0 0
s 10.103644566 _0_ RTR  --- 12 tcp 1040 [0 0 0 0] ------- [0:0 2:0 30 1] [8 0] 0 0
r 10.103934011 _1_ MAC  --- 0 ACK 38 [0 1 0 0] 
s 10.104184011 _1_ MAC  --- 0 RTS 44 [24ce 2 1 0] 
r 10.104536675 _2_ MAC  --- 0 RTS 44 [24ce 2 1 0] 
s 10.104546675 _2_ MAC  --- 0 CTS 38 [2394 1 0 0] 
r 10.104851338 _1_ MAC  --- 0 CTS 38 [2394 1 0 0] 
s 10.104861338 _1_ MAC  --- 7 tcp 1098 [13a 2 1 800] ------- [0:0 2:0 29 2] [4 0] 1 0
r 10.113646001 _2_ MAC  --- 7 tcp 1040 [13a 2 1 800] ------- [0:0 2:0 29 2] [4 0] 2 0
s 10.113656001 _2_ MAC  --- 0 ACK 38 [0 1 0 0] 
r 10.113671001 _2_ AGT  --- 7 tcp 1040 [13a 2 1 800] ------- [0:0 2:0 29 2] [4 0] 2 0
s 10.113671001 _2_ AGT  --- 13 ack 40 [0 0 0 0] ------- [2:0 0:0 32 0] [4 0] 0 0
r 10.113671001 _2_ RTR  --- 13 ack 40 [0 0 0 0] ------- [2:0 0:0 32 0] [4 0] 0 0
s 10.113671001 _2_ RTR  --- 13 ack 40 [0 0 0 0] ------- [2:0 0:0 30 1] [4 0] 0 0
r 10.113960665 _1_ MAC  --- 0 ACK 38 [0 1 0 0] 
s 10.114070001 _2_ MAC  --- 0 RTS 44 [58e 1 2 0] 
r 10.114422665 _1_ MAC  --- 0 RTS 44 [58e 1 2 0] 
s 10.114432665 _1_ MAC  --- 0 CTS 38 [454 2 0 0] 
r 10.114737328 _2_ MAC  --- 0 CTS 38 [454 2 0 0] 
s 10.114747328 _2_ MAC  --- 13 ack 98 [13a 1 2 800] ------- [2:0 0:0 30 1] [4 0] 0 0
r 10.115531991 _1_ MAC  --- 13 ack 40 [13a 1 2 800] ------- [2:0 0:0 30 1] [4 0] 1 0
s 10.115541991 _1_ MAC  --- 0 ACK 38 [0 2 0 0] 
r 10.115556991 _1_ RTR  --- 13 ack 40 [13a 1 2 800] ------- [2:0 0:0 30 1] [4 0] 1 0
f 10.115556991 _1_ RTR  --- 13 ack 40 [13a 1 2 800] ------- [2:0 0:0 29 0] [4 0] 1 0
r 10.115846655 _2_ MAC  --- 0 ACK 38 [0 2 0 0] 
s 10.116046283 _0_ MAC  --- 0 RTS 44 [24ce 1 0 0] 
r 10.116398728 _1_ MAC  --- 0 RTS 44 [24ce 1 0 0] 
s 10.116408728 _1_ MAC  --- 0 CTS 38 [2394 0 0 0] 
r 10.116713173 _0_ MAC  --- 0 CTS 38 [2394 0 0 0] 
s 10.116723173 _0_ MAC  --- 9 tcp 1098 [13a 1 0 800] ------- [0:0 2:0 30 1] [5 0] 0 0
r 10.125507619 _1_ MAC  --- 9 tcp 1040 [13a 1 0 800] ------- [0:0 2:0 30 1] [5 0] 1 0
s 10.125517619 _1_ MAC  --- 0 ACK 38 [0 0 0 0] 
r 10.125532619 _1_ RTR  --- 9 tcp 1040 [13a 1 0 800] ------- [0:0 2:0 30 1] [5 0] 1 0
f 10.125532619 _1_ RTR  --- 9 tcp 1040 [13a 1 0 800] ------- [0:0 2:0 29 2] [5 0] 1 0
r 10.125822064 _0_ MAC  --- 0 ACK 38 [0 0 0 0] 
s 10.125992064 _0_ MAC  --- 0 RTS 44 [24ce 1 0 0] 
r 10.126344509 _1_ MAC  --- 0 RTS 44 [24ce 1 0 0] 
s 10.126354509 _1_ MAC  --- 0 CTS 38 [2394 0 0 0] 
r 10.126658954 _0_ MAC  --- 0 CTS 38 [2394 0 0 0] 
s 10.126668954 _0_ MAC  --- 10 tcp 1098 [13a 1 0 800] ------- [0:0 2:0 30 1] [6 0] 0 0
r 10.135453399 _1_ MAC  --- 10 tcp 1040 [13a 1 0 800] ------- [0:0 2:0 30 1] [6 0] 1 0
s 10.135463399 _1_ MAC  --- 0 ACK 38 [0 0 0 0] 
r 10.135478399 _1_ RTR  --- 10 tcp 1040 [13a 1 0 800] ------- [0:0 2:0 30 1] [6 0] 1 0
f 10.135478399 _1_ RTR  --- 10 tcp 1040 [13a 1 0 800] ------- [0:0 2:0 29 2] [6 0] 1 0
r 10.135767844 _0_ MAC  --- 0 ACK 38 [0 0 0 0] 
s 10.136097399 _1_ MAC  --- 0 RTS 44 [58e 0 1 0] 
r 10.136449844 _0_ MAC  --- 0 RTS 44 [58e 0 1 0] 
s 10.136459844 _0_ MAC  --- 0 CTS 38 [454 1 0 0] 
r 10.136764289 _1_ MAC  --- 0 CTS 38 [454 1 0 0] 
s 10.136774289 _1_ MAC  --- 13 ack 98 [13a 0 1 800] ------- [2:0 0:0 29 0] [4 0] 1 0
r 10.137558734 _0_ MAC  --- 13 ack 40 [13a 0 1 800] ------- [2:0 0:0 29 0] [4 0] 2 0
s 10.137568734 _0_ MAC  --- 0 ACK 38 [0 1 0 0] 
r 10.137583734 _0_ AGT  --- 13 ack 40 [13a 0 1 800] ------- [2:0 0:0 29 0] [4 0] 2 0
s 10.137583734 _0_ AGT  --- 14 tcp 1040 [0 0 0 0] ------- [0:0 2:0 32 0] [9 0] 0 0
r 10.137583734 _0_ RTR  --- 14 tcp 1040 [0 0 0 0] ------- [0:0 2:0 32 0] [9 0] 0 0
s 10.137583734 _0_ AGT  --- 15 tcp 1040 [0 0 0 0] ------- [0:0 2:0 32 0] [10 0] 0 0
r 10.137583734 _0_ RTR  --- 15 tcp 1040 [0 0 0 0] ------- [0:0 2:0 32 0] [10 0] 0 0
s 10.137583734 _0_ RTR  --- 14 tcp 1040 [0 0 0 0] ------- [0:0 2:0 30 1] [9 0] 0 0
s 10.137583734 _0_ RTR  --- 15 tcp 1040 [0 0 0 0] ------- [0:0 2:0 30 1] [10 0] 0 0
r 10.137873179 _1_ MAC  --- 0 ACK 38 [0 1 0 0] 
s 10.138002734 _0_ MAC  --- 0 RTS 44 [24ce 1 0 0] 
r 10.138355179 _1_ MAC  --- 0 RTS 44 [24ce 1 0 0] 
s 10.138365179 _1_ MAC  --- 0 CTS 38 [2394 0 0 0] 
r 10.138669624 _0_ MAC  --- 0 CTS 38 [2394 0 0 0] 
s 10.138679624 _0_ MAC  --- 11 tcp 1098 [13a 1 0 800] ------- [0:0 2:0 30 1] [7 0] 0 0
r 10.147464070 _1_ MAC  --- 11 tcp 1040 [13a 1 0 800] ------- [0:0 2:0 30 1] [7 0] 1 0
s 10.147474070 _1_ MAC  --- 0 ACK 38 [0 0 0 0] 
r 10.147489070 _1_ RTR  --- 11 tcp 1040 [13a 1 0 800] ------- [0:0 2:0 30 1] [7 0] 1 0
f 10.147489070 _1_ RTR  --- 11 tcp 1040 [13a 1 0 800] ------- [0:0 2:0 29 2] [7 0] 1 0
r 10.147778514 _0_ MAC  --- 0 ACK 38 [0 0 0 0] 
s 10.148108514 _0_ MAC  --- 0 RTS 44 [24ce 1 0 0] 
r 10.148460959 _1_ MAC  --- 0 RTS 44 [24ce 1 0 0] 
s 10.148470959 _1_ MAC  --- 0 CTS 38 [2394 0 0 0] 
r 10.148775404 _0_ MAC  --- 0 CTS 38 [2394 0 0 0] 
s 10.148785404 _0_ MAC  --- 12 tcp 1098 [13a 1 0 800] ------- [0:0 2:0 30 1] [8 0] 0 0
r 10.157569849 _1_ MAC  --- 12 tcp 1040 [13a 1 0 800] ------- [0:0 2:0 30 1] [8 0] 1 0
s 10.157579849 _1_ MAC  --- 0 ACK 38 [0 0 0 0] 
r 10.157594849 _1_ RTR  --- 12 tcp 1040 [13a 1 0 800] ------- [0:0 2:0 30 1] [8 0] 1 0
f 10.157594849 _1_ RTR  --- 12 tcp 1040 [13a 1 0 800] ------- [0:0 2:0 29 2] [8 0] 1 0
r 10.157884294 _0_ MAC  --- 0 ACK 38 [0 0 0 0] 
s 10.158093849 _1_ MAC  --- 0 RTS 44 [24ce 2 1 0] 
r 10.158446513 _2_ MAC  --- 0 RTS 44 [24ce 2 1 0] 
s 10.158456513 _2_ MAC  --- 0 CTS 38 [2394 1 0 0] 
r 10.158761176 _1_ MAC  --- 0 CTS 38 [2394 1 0 0] 
s 10.158771176 _1_ MAC  --- 9 tcp 1098 [13a 2 1 800] ------- [0:0 2:0 29 2] [5 0] 1 0
r 10.167555839 _2_ MAC  --- 9 tcp 1040 [13a 2 1 800] ------- [0:0 2:0 29 2] [5 0] 2 0
s 10.167565839 _2_ MAC  --- 0 ACK 38 [0 1 0 0] 
r 10.167580839 _2_ AGT  --- 9 tcp 1040 [13a 2 1 800] ------- [0:0 2:0 29 2] [5 0] 2 0
s 10.167580839 _2_ AGT  --- 16 ack 40 [0 0 0 0] ------- [2:0 0:0 32 0] [5 0] 0 0
r 10.167580839 _2_ RTR  --- 16 ack 40 [0 0 0 0] ------- [2:0 0:0 32 0] [5 0] 0 0
s 10.167580839 _2_ RTR  --- 16 ack 40 [0 0 0 0] ------- [2:0 0:0 30 1] [5 0] 0 0
r 10.167870503 _1_ MAC  --- 0 ACK 38 [0 1 0 0] 
s 10.168199839 _2_ MAC  --- 0 RTS 44 [58e 1 2 0] 
r 10.168552503 _1_ MAC  --- 0 RTS 44 [58e 1 2 0] 
s 10.168562503 _1_ MAC  --- 0 CTS 38 [454 2 0 0] 
r 10.168867166 _2_ MAC  --- 0 CTS 38 [454 2 0 0] 
s 10.168877166 _2_ MAC  --- 16 ack 98 [13a 1 2 800] ------- [2:0 0:0 30 1] [5 0] 0 0
r 10.169661829 _1_ MAC  --- 16 ack 40 [13a 1 2 800] ------- [2:0 0:0 30 1] [5 0] 1 0
s 10.169671829 _1_ MAC  --- 0 ACK 38 [0 2 0 0] 
r 10.169686829 _1_ RTR  --- 16 ack 40 [13a 1 2 800] ------- [2:0 0:0 30 1] [5 0] 1 0
f 10.169686829 _1_ RTR  --- 16 ack 40 [13a 1 2 800] ------- [2:0 0:0 29 0] [5 0] 1 0
r 10.169976493 _2_ MAC  --- 0 ACK 38 [0 2 0 0] 
s 10.170116124 _0_ MAC  --- 0 RTS 44 [24ce 1 0 0] 
r 10.170468569 _1_ MAC  --- 0 RTS 44 [24ce 1 0 0] 
s 10.170478569 _1_ MAC  --- 0 CTS 38 [2394 0 0 0] 
r 10.170783014 _0_ MAC  --- 0 CTS 38 [2394 0 0 0] 
s 10.170793014 _0_ MAC  --- 14 tcp 1098 [13a 1 0 800] ------- [0:0 2:0 30 1] [9 0] 0 0
r 10.179577458 _1_ MAC  --- 14 tcp 1040 [13a 1 0 800] ------- [0:0 2:0 30 1] [9 0] 1 0
s 10.179587458 _1_ MAC  --- 0 ACK 38 [0 0 0 0] 
r 10.179602458 _1_ RTR  --- 14 tcp 1040 [13a 1 0 800] ------- [0:0 2:0 30 1] [9 0] 1 0
f 10.179602458 _1_ RTR  --- 14 tcp 1040 [13a 1 0 800] ------- [0:0 2:0 29 2] [9 0] 1 0
r 10.179891903 _0_ MAC  --- 0 ACK 38 [0 0 0 0] 
s 10.180061458 _1_ MAC  --- 0 RTS 44 [24ce 2 1 0] 
r 10.180414122 _2_ MAC  --- 0 RTS 44 [24ce 2 1 0] 
s 10.180424122 _2_ MAC  --- 0 CTS 38 [2394 1 0 0] 
r 10.180728785 _1_ MAC  --- 0 CTS 38 [2394 1 0 0] 
s 10.180738785 _1_ MAC  --- 10 tcp 1098 [13a 2 1 800] ------- [0:0 2:0 29 2] [6 0] 1 0
r 10.189523448 _2_ MAC  --- 10 tcp 1040 [13a 2 1 800] ------- [0:0 2:0 29 2] [6 0] 2 0
s 10.189533448 _2_ MAC  --- 0 ACK 38 [0 1 0 0] 
r 10.189548448 _2_ AGT  --- 10 tcp 1040 [13a 2 1 800] ------- [0:0 2:0 29 2] [6 0] 2 0
s 10.189548448 _2_ AGT  --- 17 ack 40 [0 0 0 0] ------- [2:0 0:0 32 0] [6 0] 0 0
r 10.189548448 _2_ RTR  --- 17 ack 40 [0 0 0 0] ------- [2:0 0:0 32 0] [6 0] 0 0
s 10.189548448 _2_ RTR  --- 17 ack 40 [0 0 0 0] ------- [2:0 0:0 30 1] [6 0] 0 0
r 10.189838112 _1_ MAC  --- 0 ACK 38 [0 1 0 0] 
s 10.190048112 _1_ MAC  --- 0 RTS 44 [58e 0 1 0] 
r 10.190400556 _0_ MAC  --- 0 RTS 44 [58e 0 1 0] 
s 10.190410556 _0_ MAC  --- 0 CTS 38 [454 1 0 0] 
r 10.190715001 _1_ MAC  --- 0 CTS 38 [454 1 0 0] 
s 10.190725001 _1_ MAC  --- 16 ack 98 [13a 0 1 800] ------- [2:0 0:0 29 0] [5 0] 1 0
r 10.191509446 _0_ MAC  --- 16 ack 40 [13a 0 1 800] ------- [2:0 0:0 29 0] [5 0] 2 0
s 10.191519446 _0_ MAC  --- 0 ACK 38 [0 1 0 0] 
r 10.191534446 _0_ AGT  --- 16 ack 40 [13a 0 1 800] ------- [2:0 0:0 29 0] [5 0] 2 0
s 10.191534446 _0_ AGT  --- 18 tcp 1040 [0 0 0 0] ------- [0:0 2:0 32 0] [11 0] 0 0
r 10.191534446 _0_ RTR  --- 18 tcp 1040 [0 0 0 0] ------- [0:0 2:0 32 0] [11 0] 0 0
s 10.191534446 _0_ AGT  --- 19 tcp 1040 [0 0 0 0] ------- [0:0 2:0 32 0] [12 0] 0 0
r 10.191534446 _0_ RTR  --- 19 tcp 1040 [0 0 0 0] ------- [0:0 2:0 32 0] [12 0] 0 0
s 10.191534446 _0_ RTR  --- 18 tcp 1040 [0 0 0 0] ------- [0:0 2:0 30 1] [11 0] 0 0
s 10.191534446 _0_ RTR  --- 19 tcp 1040 [0 0 0 0] ------- [0:0 2:0 30 1] [12 0] 0 0
r 10.191823890 _1_ MAC  --- 0 ACK 38 [0 1 0 0] 
s 10.191993446 _0_ MAC  --- 0 RTS 44 [24ce 1 0 0] 
r 10.192345890 _1_ MAC  --- 0 RTS 44 [24ce 1 0 0] 
s 10.192355890 _1_ MAC  --- 0 CTS 38 [2394 0 0 0] 
r 10.192660335 _0_ MAC  --- 0 CTS 38 [2394 0 0 0] 
s 10.192670335 _0_ MAC  --- 15 tcp 1098 [13a 1 0 800] ------- [0:0 2:0 30 1] [10 0] 0 0
r 10.201454780 _1_ MAC  --- 15 tcp 1040 [13a 1 0 800] ------- [0:0 2:0 30 1] [10 0] 1 0
s 10.201464780 _1_ MAC  --- 0 ACK 38 [0 0 0 0] 
r 10.201479780 _1_ RTR  --- 15 tcp 1040 [13a 1 0 800] ------- [0:0 2:0 30 1] [10 0] 1 0
f 10.201479780 _1_ RTR  --- 15 tcp 1040 [13a 1 0 800] ------- [0:0 2:0 29 2] [10 0] 1 0
r 10.201769224 _0_ MAC  --- 0 ACK 38 [0 0 0 0] 
s 10.201899224 _0_ MAC  --- 0 RTS 44 [24ce 1 0 0] 
r 10.202251669 _1_ MAC  --- 0 RTS 44 [24ce 1 0 0] 
s 10.202261669 _1_ MAC  --- 0 CTS 38 [2394 0 0 0] 
r 10.202566114 _0_ MAC  --- 0 CTS 38 [2394 0 0 0] 
s 10.202576114 _0_ MAC  --- 18 tcp 1098 [13a 1 0 800] ------- [0:0 2:0 30 1] [11 0] 0 0
r 10.211360558 _1_ MAC  --- 18 tcp 1040 [13a 1 0 800] ------- [0:0 2:0 30 1] [11 0] 1 0
s 10.211370558 _1_ MAC  --- 0 ACK 38 [0 0 0 0] 
r 10.211385558 _1_ RTR  --- 18 tcp 1040 [13a 1 0 800] ------- [0:0 2:0 30 1] [11 0] 1 0
f 10.211385558 _1_ RTR  --- 18 tcp 1040 [13a 1 0 800] ------- [0:0 2:0 29 2] [11 0] 1 0
r 10.211675003 _0_ MAC  --- 0 ACK 38 [0 0 0 0] 
s 10.211764558 _1_ MAC  --- 0 RTS 44 [24ce 2 1 0] 
r 10.212117222 _2_ MAC  --- 0 RTS 44 [24ce 2 1 0] 
s 10.212127222 _2_ MAC  --- 0 CTS 38 [2394 1 0 0] 
r 10.212431885 _1_ MAC  --- 0 CTS 38 [2394 1 0 0] 
s 10.212441885 _1_ MAC  --- 11 tcp 1098 [13a 2 1 800] ------- [0:0 2:0 29 2] [7 0] 1 0
r 10.221226548 _2_ MAC  --- 11 tcp 1040 [13a 2 1 800] ------- [0:0 2:0 29 2] [7 0] 2 0
s 10.221236548 _2_ MAC  --- 0 ACK 38 [0 1 0 0] 
r 10.221251548 _2_ AGT  --- 11 tcp 1040 [13a 2 1 800] ------- [0:0 2:0 29 2] [7 0] 2 0
s 10.221251548 _2_ AGT  --- 20 ack 40 [0 0 0 0] ------- [2:0 0:0 32 0] [7 0] 0 0
r 10.221251548 _2_ RTR  --- 20 ack 40 [0 0 0 0] ------- [2:0 0:0 32 0] [7 0] 0 0
s 10.221251548 _2_ RTR  --- 20 ack 40 [0 0 0 0] ------- [2:0 0:0 30 1] [7 0] 0 0
r 10.221541212 _1_ MAC  --- 0 ACK 38 [0 1 0 0] 
s 10.221591212 _1_ MAC  --- 0 RTS 44 [24ce 2 1 0] 
r 10.221943875 _2_ MAC  --- 0 RTS 44 [24ce 2 1 0] 
s 10.221953875 _2_ MAC  --- 0 CTS 38 [2394 1 0 0] 
r 10.222258538 _1_ MAC  --- 0 CTS 38 [2394 1 0 0] 
s 10.222268538 _1_ MAC  --- 12 tcp 1098 [13a 2 1 800] ------- [0:0 2:0 29 2] [8 0] 1 0
r 10.231053202 _2_ MAC  --- 12 tcp 1040 [13a 2 1 800] ------- [0:0 2:0 29 2] [8 0] 2 0
s 10.231063202 _2_ MAC  --- 0 ACK 38 [0 1 0 0] 
r 10.231078202 _2_ AGT  --- 12 tcp 1040 [13a 2 1 800] ------- [0:0 2:0 29 2] [8 0] 2 0
s 10.231078202 _2_ AGT  --- 21 ack 40 [0 0 0 0] ------- [2:0 0:0 32 0] [8 0] 0 0
r 10.231078202 _2_ RTR  --- 21 ack 40 [0 0 0 0] ------- [2:0 0:0 32 0] [8 0] 0 0
s 10.231078202 _2_ RTR  --- 21 ack 40 [0 0 0 0] ------- [2:0 0:0 30 1] [8 0] 0 0
r 10.231367865 _1_ MAC  --- 0 ACK 38 [0 1 0 0] 
s 10.231557202 _2_ MAC  --- 0 RTS 44 [58e 1 2 0] 
r 10.231909865 _1_ MAC  --- 0 RTS 44 [58e 1 2 0] 
s 10.231919865 _1_ MAC  --- 0 CTS 38 [454 2 0 0] 
r 10.232224528 _2_ MAC  --- 0 CTS 38 [454 2 0 0] 
s 10.232234528 _2_ MAC  --- 17 ack 98 [13a 1 2 800] ------- [2:0 0:0 30 1] [6 0] 0 0
r 10.233019192 _1_ MAC  --- 17 ack 40 [13a 1 2 800] ------- [2:0 0:0 30 1] [6 0] 1 0
s 10.233029192 _1_ MAC  --- 0 ACK 38 [0 2 0 0] 
r 10.233044192 _1_ RTR  --- 17 ack 40 [13a 1 2 800] ------- [2:0 0:0 30 1] [6 0] 1 0
f 10.233044192 _1_ RTR  --- 17 ack 40 [13a 1 2 800] ------- [2:0 0:0 29 0] [6 0] 1 0