n -t * -s 0  -x 5 -y 5 -Z 0 -z 40  -v circle -c black
n -t * -s 1  -x 480 -y 285 -Z 0 -z 40  -v circle -c black
n -t * -s 2  -x 150 -y 240 -Z 0 -z 40  -v circle -c black
V -t * -v 1.0a5 -a 0
W -t * -x 500 -y 400
A -t * -n 1 -p 0 -o 0x7fffffff -c 30 -a 1
A -t * -h 1 -m 1073741823 -s 0
n -t 0.000000 -s 0 -x 5.000000 -y 5.000000 -U 25.391748 -V 15.976830 -T 17.525378
n -t 0.000000 -s 1 -x 480.000000 -y 285.000000 -U -30.000000 -V 0.000000 -T 9.333333
n -t 0.000000 -s 2 -x 150.000000 -y 240.000000 -U -28.718825 -V 8.673471 -T 5.188235
+ -t 10.000000000 -s 0 -d -1 -p tcp -e 40 -c 2 -a 0 -i 0 -k AGT 
- -t 10.000000000 -s 0 -d -1 -p tcp -e 40 -c 2 -a 0 -i 0 -k AGT
h -t 10.000000000 -s 0 -d -1 -p tcp -e 40 -c 2 -a 0 -i 0 -k AGT
+ -t 10.000000000 -s 0 -d -1 -p AODV -e 48 -c 2 -a 0 -i 0 -k RTR 
- -t 10.000000000 -s 0 -d -1 -p AODV -e 48 -c 2 -a 0 -i 0 -k RTR
h -t 10.000000000 -s 0 -d -1 -p AODV -e 48 -c 2 -a 0 -i 0 -k RTR
+ -t 10.000115000 -s 0 -d -1 -p AODV -e 106 -c 2 -a 0 -i 0 -k MAC 
- -t 10.000115000 -s 0 -d -1 -p AODV -e 106 -c 2 -a 0 -i 0 -k MAC
h -t 10.000115000 -s 0 -d -1 -p AODV -e 106 -c 2 -a 0 -i 0 -k MAC
r -t 10.000963446 -s 1 -d -1 -p AODV -e 48 -c 2 -a 0 -i 0 -k MAC
r -t 10.000988446 -s 1 -d -1 -p AODV -e 48 -c 2 -a 0 -i 0 -k RTR
+ -t 10.001869673 -s 1 -d -1 -p AODV -e 48 -c 2 -a 0 -i 0 -k RTR 
- -t 10.001869673 -s 1 -d -1 -p AODV -e 48 -c 2 -a 0 -i 0 -k RTR
h -t 10.001869673 -s 1 -d -1 -p AODV -e 48 -c 2 -a 0 -i 0 -k RTR
+ -t 10.002264673 -s 1 -d -1 -p AODV -e 106 -c 2 -a 0 -i 0 -k MAC 
- -t 10.002264673 -s 1 -d -1 -p AODV -e 106 -c 2 -a 0 -i 0 -k MAC
h -t 10.002264673 -s 1 -d -1 -p AODV -e 106 -c 2 -a 0 -i 0 -k MAC
r -t 10.003113119 -s 0 -d -1 -p AODV -e 48 -c 2 -a 0 -i 0 -k MAC
r -t 10.003113336 -s 2 -d -1 -p AODV -e 48 -c 2 -a 0 -i 0 -k MAC
r -t 10.003138119 -s 0 -d -1 -p AODV -e 48 -c 2 -a 0 -i 0 -k RTR
r -t 10.003138336 -s 2 -d -1 -p AODV -e 48 -c 2 -a 0 -i 0 -k RTR
+ -t 10.003138336 -s 2 -d 1 -p AODV -e 44 -c 2 -a 0 -i 0 -k RTR 
- -t 10.003138336 -s 2 -d 1 -p AODV -e 44 -c 2 -a 0 -i 0 -k RTR
h -t 10.003138336 -s 2 -d 1 -p AODV -e 44 -c 2 -a 0 -i 0 -k RTR
+ -t 10.003353336 -s 2 -d -1 -p ARP -e 86 -c 2 -a 0 -i 0 -k MAC 
- -t 10.003353336 -s 2 -d -1 -p ARP -e 86 -c 2 -a 0 -i 0 -k MAC
h -t 10.003353336 -s 2 -d -1 -p ARP -e 86 -c 2 -a 0 -i 0 -k MAC
r -t 10.004042000 -s 1 -d -1 -p ARP -e 28 -c 2 -a 0 -i 0 -k MAC
+ -t 10.004337000 -s 1 -d -1 -p RTS -e 44 -c 2 -a 0 -i 0 -k MAC 
- -t 10.004337000 -s 1 -d -1 -p RTS -e 44 -c 2 -a 0 -i 0 -k MAC
h -t 10.004337000 -s 1 -d -1 -p RTS -e 44 -c 2 -a 0 -i 0 -k MAC
r -t 10.004689663 -s 2 -d -1 -p RTS -e 44 -c 2 -a 0 -i 0 -k MAC
+ -t 10.004699663 -s 2 -d -1 -p CTS -e 38 -c 2 -a 0 -i 0 -k MAC 
- -t 10.004699663 -s 2 -d -1 -p CTS -e 38 -c 2 -a 0 -i 0 -k MAC
h -t 10.004699663 -s 2 -d -1 -p CTS -e 38 -c 2 -a 0 -i 0 -k MAC
r -t 10.005004326 -s 1 -d -1 -p CTS -e 38 -c 2 -a 0 -i 0 -k MAC
+ -t 10.005014326 -s 1 -d -1 -p ARP -e 86 -c 2 -a 0 -i 0 -k MAC 
- -t 10.005014326 -s 1 -d -1 -p ARP -e 86 -c 2 -a 0 -i 0 -k MAC
h -t 10.005014326 -s 1 -d -1 -p ARP -e 86 -c 2 -a 0 -i 0 -k MAC
r -t 10.005702990 -s 2 -d -1 -p ARP -e 28 -c 2 -a 0 -i 0 -k MAC
+ -t 10.005712990 -s 2 -d -1 -p ACK -e 38 -c 2 -a 0 -i 0 -k MAC 
- -t 10.005712990 -s 2 -d -1 -p ACK -e 38 -c 2 -a 0 -i 0 -k MAC
h -t 10.005712990 -s 2 -d -1 -p ACK -e 38 -c 2 -a 0 -i 0 -k MAC
r -t 10.006017653 -s 1 -d -1 -p ACK -e 38 -c 2 -a 0 -i 0 -k MAC
+ -t 10.006426990 -s 2 -d -1 -p RTS -e 44 -c 2 -a 0 -i 0 -k MAC 
- -t 10.006426990 -s 2 -d -1 -p RTS -e 44 -c 2 -a 0 -i 0 -k MAC
h -t 10.006426990 -s 2 -d -1 -p RTS -e 44 -c 2 -a 0 -i 0 -k MAC
r -t 10.006779653 -s 1 -d -1 -p RTS -e 44 -c 2 -a 0 -i 0 -k MAC
+ -t 10.006789653 -s 1 -d -1 -p CTS -e 38 -c 2 -a 0 -i 0 -k MAC 
- -t 10.006789653 -s 1 -d -1 -p CTS -e 38 -c 2 -a 0 -i 0 -k MAC
h -t 10.006789653 -s 1 -d -1 -p CTS -e 38 -c 2 -a 0 -i 0 -k MAC
r -t 10.007094316 -s 2 -d -1 -p CTS -e 38 -c 2 -a 0 -i 0 -k MAC
+ -t 10.007104316 -s 2 -d 1 -p AODV -e 102 -c 2 -a 0 -i 0 -k MAC 
- -t 10.007104316 -s 2 -d 1 -p AODV -e 102 -c 2 -a 0 -i 0 -k MAC
h -t 10.007104316 -s 2 -d 1 -p AODV -e 102 -c 2 -a 0 -i 0 -k MAC
r -t 10.007920980 -s 1 -d 1 -p AODV -e 44 -c 2 -a 0 -i 0 -k MAC
+ -t 10.007930980 -s 1 -d -1 -p ACK -e 38 -c 2 -a 0 -i 0 -k MAC 
- -t 10.007930980 -s 1 -d -1 -p ACK -e 38 -c 2 -a 0 -i 0 -k MAC
h -t 10.007930980 -s 1 -d -1 -p ACK -e 38 -c 2 -a 0 -i 0 -k MAC
+ -t 10.007945980 -s 1 -d 0 -p AODV -e 44 -c 2 -a 0 -i 0 -k RTR 
- -t 10.007945980 -s 1 -d 0 -p AODV -e 44 -c 2 -a 0 -i 0 -k RTR
h -t 10.007945980 -s 1 -d 0 -p AODV -e 44 -c 2 -a 0 -i 0 -k RTR
r -t 10.008235643 -s 2 -d -1 -p ACK -e 38 -c 2 -a 0 -i 0 -k MAC
+ -t 10.008524980 -s 1 -d -1 -p ARP -e 86 -c 2 -a 0 -i 0 -k MAC 
- -t 10.008524980 -s 1 -d -1 -p ARP -e 86 -c 2 -a 0 -i 0 -k MAC
h -t 10.008524980 -s 1 -d -1 -p ARP -e 86 -c 2 -a 0 -i 0 -k MAC
r -t 10.009213426 -s 0 -d -1 -p ARP -e 28 -c 2 -a 0 -i 0 -k MAC
r -t 10.009213643 -s 2 -d -1 -p ARP -e 28 -c 2 -a 0 -i 0 -k MAC
+ -t 10.009428426 -s 0 -d -1 -p RTS -e 44 -c 2 -a 0 -i 0 -k MAC 
- -t 10.009428426 -s 0 -d -1 -p RTS -e 44 -c 2 -a 0 -i 0 -k MAC
h -t 10.009428426 -s 0 -d -1 -p RTS -e 44 -c 2 -a 0 -i 0 -k MAC
r -t 10.009780872 -s 1 -d -1 -p RTS -e 44 -c 2 -a 0 -i 0 -k MAC
+ -t 10.009790872 -s 1 -d -1 -p CTS -e 38 -c 2 -a 0 -i 0 -k MAC 
- -t 10.009790872 -s 1 -d -1 -p CTS -e 38 -c 2 -a 0 -i 0 -k MAC
h -t 10.009790872 -s 1 -d -1 -p CTS -e 38 -c 2 -a 0 -i 0 -k MAC
r -t 10.010095318 -s 0 -d -1 -p CTS -e 38 -c 2 -a 0 -i 0 -k MAC
+ -t 10.010105318 -s 0 -d -1 -p ARP -e 86 -c 2 -a 0 -i 0 -k MAC 
- -t 10.010105318 -s 0 -d -1 -p ARP -e 86 -c 2 -a 0 -i 0 -k MAC
h -t 10.010105318 -s 0 -d -1 -p ARP -e 86 -c 2 -a 0 -i 0 -k MAC
r -t 10.010793765 -s 1 -d -1 -p ARP -e 28 -c 2 -a 0 -i 0 -k MAC
+ -t 10.010803765 -s 1 -d -1 -p ACK -e 38 -c 2 -a 0 -i 0 -k MAC 
- -t 10.010803765 -s 1 -d -1 -p ACK -e 38 -c 2 -a 0 -i 0 -k MAC
h -t 10.010803765 -s 1 -d -1 -p ACK -e 38 -c 2 -a 0 -i 0 -k MAC
r -t 10.011108211 -s 0 -d -1 -p ACK -e 38 -c 2 -a 0 -i 0 -k MAC
+ -t 10.011537765 -s 1 -d -1 -p RTS -e 44 -c 2 -a 0 -i 0 -k MAC 
- -t 10.011537765 -s 1 -d -1 -p RTS -e 44 -c 2 -a 0 -i 0 -k MAC
h -t 10.011537765 -s 1 -d -1 -p RTS -e 44 -c 2 -a 0 -i 0 -k MAC
r -t 10.011890211 -s 0 -d -1 -p RTS -e 44 -c 2 -a 0 -i 0 -k MAC
+ -t 10.011900211 -s 0 -d -1 -p CTS -e 38 -c 2 -a 0 -i 0 -k MAC 
- -t 10.011900211 -s 0 -d -1 -p CTS -e 38 -c 2 -a 0 -i 0 -k MAC
h -t 10.011900211 -s 0 -d -1 -p CTS -e 38 -c 2 -a 0 -i 0 -k MAC
r -t 10.012204657 -s 1 -d -1 -p CTS -e 38 -c 2 -a 0 -i 0 -k MAC
+ -t 10.012214657 -s 1 -d 0 -p AODV -e 102 -c 2 -a 0 -i 0 -k MAC 
- -t 10.012214657 -s 1 -d 0 -p AODV -e 102 -c 2 -a 0 -i 0 -k MAC
h -t 10.012214657 -s 1 -d 0 -p AODV -e 102 -c 2 -a 0 -i 0 -k MAC
r -t 10.013031103 -s 0 -d 0 -p AODV -e 44 -c 2 -a 0 -i 0 -k MAC
+ -t 10.013041103 -s 0 -d -1 -p ACK -e 38 -c 2 -a 0 -i 0 -k MAC 
- -t 10.013041103 -s 0 -d -1 -p ACK -e 38 -c 2 -a 0 -i 0 -k MAC
h -t 10.013041103 -s 0 -d -1 -p ACK -e 38 -c 2 -a 0 -i 0 -k MAC
+ -t 10.013056103 -s 0 -d 1 -p tcp -e 40 -c 2 -a 0 -i 0 -k RTR 
- -t 10.013056103 -s 0 -d 1 -p tcp -e 40 -c 2 -a 0 -i 0 -k RTR
h -t 10.013056103 -s 0 -d 1 -p tcp -e 40 -c 2 -a 0 -i 0 -k RTR
r -t 10.013345549 -s 1 -d -1 -p ACK -e 38 -c 2 -a 0 -i 0 -k MAC
+ -t 10.013635103 -s 0 -d -1 -p RTS -e 44 -c 2 -a 0 -i 0 -k MAC 
- -t 10.013635103 -s 0 -d -1 -p RTS -e 44 -c 2 -a 0 -i 0 -k MAC
h -t 10.013635103 -s 0 -d -1 -p RTS -e 44 -c 2 -a 0 -i 0 -k MAC
r -t 10.013987549 -s 1 -d -1 -p RTS -e 44 -c 2 -a 0 -i 0 -k MAC
+ -t 10.013997549 -s 1 -d -1 -p CTS -e 38 -c 2 -a 0 -i 0 -k MAC 
- -t 10.013997549 -s 1 -d -1 -p CTS -e 38 -c 2 -a 0 -i 0 -k MAC
h -t 10.013997549 -s 1 -d -1 -p CTS -e 38 -c 2 -a 0 -i 0 -k MAC
r -t 10.014301995 -s 0 -d -1 -p CTS -e 38 -c 2 -a 0 -i 0 -k MAC
+ -t 10.014311995 -s 0 -d 1 -p tcp -e 98 -c 2 -a 0 -i 0 -k MAC 
- -t 10.014311995 -s 0 -d 1 -p tcp -e 98 -c 2 -a 0 -i 0 -k MAC
h -t 10.014311995 -s 0 -d 1 -p tcp -e 98 -c 2 -a 0 -i 0 -k MAC
r -t 10.015096442 -s 1 -d 1 -p tcp -e 40 -c 2 -a 0 -i 0 -k MAC
+ -t 10.015106442 -s 1 -d -1 -p ACK -e 38 -c 2 -a 0 -i 0 -k MAC 
- -t 10.015106442 -s 1 -d -1 -p ACK -e 38 -c 2 -a 0 -i 0 -k MAC
h -t 10.015106442 -s 1 -d -1 -p ACK -e 38 -c 2 -a 0 -i 0 -k MAC
+ -t 10.015121442 -s 1 -d 2 -p tcp -e 40 -c 2 -a 0 -i 0 -k RTR 
- -t 10.015121442 -s 1 -d 2 -p tcp -e 40 -c 2 -a 0 -i 0 -k RTR
h -t 10.015121442 -s 1 -d 2 -p tcp -e 40 -c 2 -a 0 -i 0 -k RTR
r -t 10.015410888 -s 0 -d -1 -p ACK -e 38 -c 2 -a 0 -i 0 -k MAC
+ -t 10.015940442 -s 1 -d -1 -p RTS -e 44 -c 2 -a 0 -i 0 -k MAC 
- -t 10.015940442 -s 1 -d -1 -p RTS -e 44 -c 2 -a 0 -i 0 -k MAC
h -t 10.015940442 -s 1 -d -1 -p RTS -e 44 -c 2 -a 0 -i 0 -k MAC
r -t 10.016293105 -s 2 -d -1 -p RTS -e 44 -c 2 -a 0 -i 0 -k MAC
+ -t 10.016303105 -s 2 -d -1 -p CTS -e 38 -c 2 -a 0 -i 0 -k MAC 
- -t 10.016303105 -s 2 -d -1 -p CTS -e 38 -c 2 -a 0 -i 0 -k MAC
h -t 10.016303105 -s 2 -d -1 -p CTS -e 38 -c 2 -a 0 -i 0 -k MAC
r -t 10.016607768 -s 1 -d -1 -p CTS -e 38 -c 2 -a 0 -i 0 -k MAC
+ -t 10.016617768 -s 1 -d 2 -p tcp -e 98 -c 2 -a 0 -i 0 -k MAC 
- -t 10.016617768 -s 1 -d 2 -p tcp -e 98 -c 2 -a 0 -i 0 -k MAC
h -t 10.016617768 -s 1 -d 2 -p tcp -e 98 -c 2 -a 0 -i 0 -k MAC
r -t 10.017402432 -s 2 -d 2 -p tcp -e 40 -c 2 -a 0 -i 0 -k MAC
+ -t 10.017412432 -s 2 -d -1 -p ACK -e 38 -c 2 -a 0 -i 0 -k MAC 
- -t 10.017412432 -s 2 -d -1 -p ACK -e 38 -c 2 -a 0 -i 0 -k MAC
h -t 10.017412432 -s 2 -d -1 -p ACK -e 38 -c 2 -a 0 -i 0 -k MAC
r -t 10.017427432 -s 2 -d 2 -p tcp -e 40 -c 2 -a 0 -i 0 -k AGT
+ -t 10.017427432 -s 2 -d -1 -p ack -e 40 -c 2 -a 0 -i 1 -k AGT 
- -t 10.017427432 -s 2 -d -1 -p ack -e 40 -c 2 -a 0 -i 1 -k AGT
h -t 10.017427432 -s 2 -d -1 -p ack -e 40 -c 2 -a 0 -i 1 -k AGT
+ -t 10.017427432 -s 2 -d 1 -p ack -e 40 -c 2 -a 0 -i 1 -k RTR 
- -t 10.017427432 -s 2 -d 1 -p ack -e 40 -c 2 -a 0 -i 1 -k RTR
h -t 10.017427432 -s 2 -d 1 -p ack -e 40 -c 2 -a 0 -i 1 -k RTR
r -t 10.017717095 -s 1 -d -1 -p ACK -e 38 -c 2 -a 0 -i 0 -k MAC
+ -t 10.018086432 -s 2 -d -1 -p RTS -e 44 -c 2 -a 0 -i 0 -k MAC 
- -t 10.018086432 -s 2 -d -1 -p RTS -e 44 -c 2 -a 0 -i 0 -k MAC
h -t 10.018086432 -s 2 -d -1 -p RTS -e 44 -c 2 -a 0 -i 0 -k MAC
r -t 10.018439095 -s 1 -d -1 -p RTS -e 44 -c 2 -a 0 -i 0 -k MAC
+ -t 10.018449095 -s 1 -d -1 -p CTS -e 38 -c 2 -a 0 -i 0 -k MAC 
- -t 10.018449095 -s 1 -d -1 -p CTS -e 38 -c 2 -a 0 -i 0 -k MAC
h -t 10.018449095 -s 1 -d -1 -p CTS -e 38 -c 2 -a 0 -i 0 -k MAC
r -t 10.018753758 -s 2 -d -1 -p CTS -e 38 -c 2 -a 0 -i 0 -k MAC
+ -t 10.018763758 -s 2 -d 1 -p ack -e 98 -c 2 -a 0 -i 1 -k MAC 
- -t 10.018763758 -s 2 -d 1 -p ack -e 98 -c 2 -a 0 -i 1 -k MAC
h -t 10.018763758 -s 2 -d 1 -p ack -e 98 -c 2 -a 0 -i 1 -k MAC
r -t 10.019548422 -s 1 -d 1 -p ack -e 40 -c 2 -a 0 -i 1 -k MAC
+ -t 10.019558422 -s 1 -d -1 -p ACK -e 38 -c 2 -a 0 -i 0 -k MAC 
- -t 10.019558422 -s 1 -d -1 -p ACK -e 38 -c 2 -a 0 -i 0 -k MAC
h -t 10.019558422 -s 1 -d -1 -p ACK -e 38 -c 2 -a 0 -i 0 -k MAC
+ -t 10.019573422 -s 1 -d 0 -p ack -e 40 -c 2 -a 0 -i 1 -k RTR 
- -t 10.019573422 -s 1 -d 0 -p ack -e 40 -c 2 -a 0 -i 1 -k RTR
h -t 10.019573422 -s 1 -d 0 -p ack -e 40 -c 2 -a 0 -i 1 -k RTR
r -t 10.019863085 -s 2 -d -1 -p ACK -e 38 -c 2 -a 0 -i 0 -k MAC
+ -t 10.020132422 -s 1 -d -1 -p RTS -e 44 -c 2 -a 0 -i 0 -k MAC 
- -t 10.020132422 -s 1 -d -1 -p RTS -e 44 -c 2 -a 0 -i 0 -k MAC
h -t 10.020132422 -s 1 -d -1 -p RTS -e 44 -c 2 -a 0 -i 0 -k MAC
r -t 10.020484868 -s 0 -d -1 -p RTS -e 44 -c 2 -a 0 -i 0 -k MAC
+ -t 10.020494868 -s 0 -d -1 -p CTS -e 38 -c 2 -a 0 -i 0 -k MAC 
- -t 10.020494868 -s 0 -d -1 -p CTS -e 38 -c 2 -a 0 -i 0 -k MAC
h -t 10.020494868 -s 0 -d -1 -p CTS -e 38 -c 2 -a 0 -i 0 -k MAC
r -t 10.020799314 -s 1 -d -1 -p CTS -e 38 -c 2 -a 0 -i 0 -k MAC
+ -t 10.020809314 -s 1 -d 0 -p ack -e 98 -c 2 -a 0 -i 1 -k MAC 
- -t 10.020809314 -s 1 -d 0 -p ack -e 98 -c 2 -a 0 -i 1 -k MAC
h -t 10.020809314 -s 1 -d 0 -p ack -e 98 -c 2 -a 0 -i 1 -k MAC
r -t 10.021593760 -s 0 -d 0 -p ack -e 40 -c 2 -a 0 -i 1 -k MAC
+ -t 10.021603760 -s 0 -d -1 -p ACK -e 38 -c 2 -a 0 -i 0 -k MAC 
- -t 10.021603760 -s 0 -d -1 -p ACK -e 38 -c 2 -a 0 -i 0 -k MAC
h -t 10.021603760 -s 0 -d -1 -p ACK -e 38 -c 2 -a 0 -i 0 -k MAC
r -t 10.021618760 -s 0 -d 0 -p ack -e 40 -c 2 -a 0 -i 1 -k AGT
+ -t 10.021618760 -s 0 -d -1 -p tcp -e 1040 -c 2 -a 0 -i 2 -k AGT 
- -t 10.021618760 -s 0 -d -1 -p tcp -e 1040 -c 2 -a 0 -i 2 -k AGT
h -t 10.021618760 -s 0 -d -1 -p tcp -e 1040 -c 2 -a 0 -i 2 -k AGT
+ -t 10.021618760 -s 0 -d -1 -p tcp -e 1040 -c 2 -a 0 -i 3 -k AGT 
- -t 10.021618760 -s 0 -d -1 -p tcp -e 1040 -c 2 -a 0 -i 3 -k AGT
h -t 10.021618760 -s 0 -d -1 -p tcp -e 1040 -c 2 -a 0 -i 3 -k AGT
+ -t 10.021618760 -s 0 -d 1 -p tcp -e 1040 -c 2 -a 0 -i 2 -k RTR 
- -t 10.021618760 -s 0 -d 1 -p tcp -e 1040 -c 2 -a 0 -i 2 -k RTR
h -t 10.021618760 -s 0 -d 1 -p tcp -e 1040 -c 2 -a 0 -i 2 -k RTR
+ -t 10.021618760 -s 0 -d 1 -p tcp -e 1040 -c 2 -a 0 -i 3 -k RTR 
- -t 10.021618760 -s 0 -d 1 -p tcp -e 1040 -c 2 -a 0 -i 3 -k RTR
h -t 10.021618760 -s 0 -d 1 -p tcp -e 1040 -c 2 -a 0 -i 3 -k RTR
r -t 10.021908206 -s 1 -d -1 -p ACK -e 38 -c 2 -a 0 -i 0 -k MAC
+ -t 10.022197760 -s 0 -d -1 -p RTS -e 44 -c 2 -a 0 -i 0 -k MAC 
- -t 10.022197760 -s 0 -d -1 -p RTS -e 44 -c 2 -a 0 -i 0 -k MAC
h -t 10.022197760 -s 0 -d -1 -p RTS -e 44 -c 2 -a 0 -i 0 -k MAC
r -t 10.022550206 -s 1 -d -1 -p RTS -e 44 -c 2 -a 0 -i 0 -k MAC
+ -t 10.022560206 -s 1 -d -1 -p CTS -e 38 -c 2 -a 0 -i 0 -k MAC 
- -t 10.022560206 -s 1 -d -1 -p CTS -e 38 -c 2 -a 0 -i 0 -k MAC
h -t 10.022560206 -s 1 -d -1 -p CTS -e 38 -c 2 -a 0 -i 0 -k MAC
r -t 10.022864652 -s 0 -d -1 -p CTS -e 38 -c 2 -a 0 -i 0 -k MAC
+ -t 10.022874652 -s 0 -d 1 -p tcp -e 1098 -c 2 -a 0 -i 2 -k MAC 
- -t 10.022874652 -s 0 -d 1 -p tcp -e 1098 -c 2 -a 0 -i 2 -k MAC
h -t 10.022874652 -s 0 -d 1 -p tcp -e 1098 -c 2 -a 0 -i 2 -k MAC
r -t 10.031659098 -s 1 -d 1 -p tcp -e 1040 -c 2 -a 0 -i 2 -k MAC
+ -t 10.031669098 -s 1 -d -1 -p ACK -e 38 -c 2 -a 0 -i 0 -k MAC 
- -t 10.031669098 -s 1 -d -1 -p ACK -e 38 -c 2 -a 0 -i 0 -k MAC
h -t 10.031669098 -s 1 -d -1 -p ACK -e 38 -c 2 -a 0 -i 0 -k MAC
+ -t 10.031684098 -s 1 -d 2 -p tcp -e 1040 -c 2 -a 0 -i 2 -k RTR 
- -t 10.031684098 -s 1 -d 2 -p tcp -e 1040 -c 2 -a 0 -i 2 -k RTR
h -t 10.031684098 -s 1 -d 2 -p tcp -e 1040 -c 2 -a 0 -i 2 -k RTR
r -t 10.031973544 -s 0 -d -1 -p ACK -e 38 -c 2 -a 0 -i 0 -k MAC
+ -t 10.032203544 -s 0 -d -1 -p RTS -e 44 -c 2 -a 0 -i 0 -k MAC 
- -t 10.032203544 -s 0 -d -1 -p RTS -e 44 -c 2 -a 0 -i 0 -k MAC
h -t 10.032203544 -s 0 -d -1 -p RTS -e 44 -c 2 -a 0 -i 0 -k MAC
r -t 10.032555990 -s 1 -d -1 -p RTS -e 44 -c 2 -a 0 -i 0 -k MAC
+ -t 10.032565990 -s 1 -d -1 -p CTS -e 38 -c 2 -a 0 -i 0 -k MAC 
- -t 10.032565990 -s 1 -d -1 -p CTS -e 38 -c 2 -a 0 -i 0 -k MAC
h -t 10.032565990 -s 1 -d -1 -p CTS -e 38 -c 2 -a 0 -i 0 -k MAC
r -t 10.032870436 -s 0 -d -1 -p CTS -e 38 -c 2 -a 0 -i 0 -k MAC
+ -t 10.032880436 -s 0 -d 1 -p tcp -e 1098 -c 2 -a 0 -i 3 -k MAC 
- -t 10.032880436 -s 0 -d 1 -p tcp -e 1098 -c 2 -a 0 -i 3 -k MAC
h -t 10.032880436 -s 0 -d 1 -p tcp -e 1098 -c 2 -a 0 -i 3 -k MAC
r -t 10.041664882 -s 1 -d 1 -p tcp -e 1040 -c 2 -a 0 -i 3 -k MAC
+ -t 10.041674882 -s 1 -d -1 -p ACK -e 38 -c 2 -a 0 -i 0 -k MAC 
- -t 10.041674882 -s 1 -d -1 -p ACK -e 38 -c 2 -a 0 -i 0 -k MAC
h -t 10.041674882 -s 1 -d -1 -p ACK -e 38 -c 2 -a 0 -i 0 -k MAC
+ -t 10.041689882 -s 1 -d 2 -p tcp -e 1040 -c 2 -a 0 -i 3 -k RTR 
- -t 10.041689882 -s 1 -d 2 -p tcp -e 1040 -c 2 -a 0 -i 3 -k RTR
h -t 10.041689882 -s 1 -d 2 -p tcp -e 1040 -c 2 -a 0 -i 3 -k RTR
r -t 10.041979328 -s 0 -d -1 -p ACK -e 38 -c 2 -a 0 -i 0 -k MAC
+ -t 10.042068882 -s 1 -d -1 -p RTS -e 44 -c 2 -a 0 -i 0 -k MAC 
- -t 10.042068882 -s 1 -d -1 -p RTS -e 44 -c 2 -a 0 -i 0 -k MAC
h -t 10.042068882 -s 1 -d -1 -p RTS -e 44 -c 2 -a 0 -i 0 -k MAC
r -t 10.042421545 -s 2 -d -1 -p RTS -e 44 -c 2 -a 0 -i 0 -k MAC
+ -t 10.042431545 -s 2 -d -1 -p CTS -e 38 -c 2 -a 0 -i 0 -k MAC 
- -t 10.042431545 -s 2 -d -1 -p CTS -e 38 -c 2 -a 0 -i 0 -k MAC
h -t 10.042431545 -s 2 -d -1 -p CTS -e 38 -c 2 -a 0 -i 0 -k MAC
r -t 10.042736209 -s 1 -d -1 -p CTS -e 38 -c 2 -a 0 -i 0 -k MAC
+ -t 10.042746209 -s 1 -d 2 -p tcp -e 1098 -c 2 -a 0 -i 2 -k MAC 
- -t 10.042746209 -s 1 -d 2 -p tcp -e 1098 -c 2 -a 0 -i 2 -k MAC
h -t 10.042746209 -s 1 -d 2 -p tcp -e 1098 -c 2 -a 0 -i 2 -k MAC
r -t 10.051530872 -s 2 -d 2 -p tcp -e 1040 -c 2 -a 0 -i 2 -k MAC
+ -t 10.051540872 -s 2 -d -1 -p ACK -e 38 -c 2 -a 0 -i 0 -k MAC 
- -t 10.051540872 -s 2 -d -1 -p ACK -e 38 -c 2 -a 0 -i 0 -k MAC
h -t 10.051540872 -s 2 -d -1 -p ACK -e 38 -c 2 -a 0 -i 0 -k MAC
r -t 10.051555872 -s 2 -d 2 -p tcp -e 1040 -c 2 -a 0 -i 2 -k AGT
+ -t 10.051555872 -s 2 -d -1 -p ack -e 40 -c 2 -a 0 -i 4 -k AGT 
- -t 10.051555872 -s 2 -d -1 -p ack -e 40 -c 2 -a 0 -i 4 -k AGT
h -t 10.051555872 -s 2 -d -1 -p ack -e 40 -c 2 -a 0 -i 4 -k AGT
+ -t 10.051555872 -s 2 -d 1 -p ack -e 40 -c 2 -a 0 -i 4 -k RTR 
- -t 10.051555872 -s 2 -d 1 -p ack -e 40 -c 2 -a 0 -i 4 -k RTR
h -t 10.051555872 -s 2 -d 1 -p ack -e 40 -c 2 -a 0 -i 4 -k RTR
r -t 10.051845535 -s 1 -d -1 -p ACK -e 38 -c 2 -a 0 -i 0 -k MAC
+ -t 10.052294872 -s 2 -d -1 -p RTS -e 44 -c 2 -a 0 -i 0 -k MAC 
- -t 10.052294872 -s 2 -d -1 -p RTS -e 44 -c 2 -a 0 -i 0 -k MAC
h -t 10.052294872 -s 2 -d -1 -p RTS -e 44 -c 2 -a 0 -i 0 -k MAC
r -t 10.052647535 -s 1 -d -1 -p RTS -e 44 -c 2 -a 0 -i 0 -k MAC
+ -t 10.052657535 -s 1 -d -1 -p CTS -e 38 -c 2 -a 0 -i 0 -k MAC 
- -t 10.052657535 -s 1 -d -1 -p CTS -e 38 -c 2 -a 0 -i 0 -k MAC
h -t 10.052657535 -s 1 -d -1 -p CTS -e 38 -c 2 -a 0 -i 0 -k MAC
r -t 10.052962199 -s 2 -d -1 -p CTS -e 38 -c 2 -a 0 -i 0 -k MAC
+ -t 10.052972199 -s 2 -d 1 -p ack -e 98 -c 2 -a 0 -i 4 -k MAC 
- -t 10.052972199 -s 2 -d 1 -p ack -e 98 -c 2 -a 0 -i 4 -k MAC
h -t 10.052972199 -s 2 -d 1 -p ack -e 98 -c 2 -a 0 -i 4 -k MAC
r -t 10.053756862 -s 1 -d 1 -p ack -e 40 -c 2 -a 0 -i 4 -k MAC
+ -t 10.053766862 -s 1 -d -1 -p ACK -e 38 -c 2 -a 0 -i 0 -k MAC 
- -t 10.053766862 -s 1 -d -1 -p ACK -e 38 -c 2 -a 0 -i 0 -k MAC
h -t 10.053766862 -s 1 -d -1 -p ACK -e 38 -c 2 -a 0 -i 0 -k MAC
+ -t 10.053781862 -s 1 -d 0 -p ack -e 40 -c 2 -a 0 -i 4 -k RTR 
- -t 10.053781862 -s 1 -d 0 -p ack -e 40 -c 2 -a 0 -i 4 -k RTR
h -t 10.053781862 -s 1 -d 0 -p ack -e 40 -c 2 -a 0 -i 4 -k RTR
r -t 10.054071525 -s 2 -d -1 -p ACK -e 38 -c 2 -a 0 -i 0 -k MAC
+ -t 10.054260862 -s 1 -d -1 -p RTS -e 44 -c 2 -a 0 -i 0 -k MAC 
- -t 10.054260862 -s 1 -d -1 -p RTS -e 44 -c 2 -a 0 -i 0 -k MAC
h -t 10.054260862 -s 1 -d -1 -p RTS -e 44 -c 2 -a 0 -i 0 -k MAC
r -t 10.054613525 -s 2 -d -1 -p RTS -e 44 -c 2 -a 0 -i 0 -k MAC
+ -t 10.054623525 -s 2 -d -1 -p CTS -e 38 -c 2 -a 0 -i 0 -k MAC 
- -t 10.054623525 -s 2 -d -1 -p CTS -e 38 -c 2 -a 0 -i 0 -k MAC
h -t 10.054623525 -s 2 -d -1 -p CTS -e 38 -c 2 -a 0 -i 0 -k MAC
r -t 10.054928189 -s 1 -d -1 -p CTS -e 38 -c 2 -a 0 -i 0 -k MAC
+ -t 10.054938189 -s 1 -d 2 -p tcp -e 1098 -c 2 -a 0 -i 3 -k MAC 
- -t 10.054938189 -s 1 -d 2 -p tcp -e 1098 -c 2 -a 0 -i 3 -k MAC
h -t 10.054938189 -s 1 -d 2 -p tcp -e 1098 -c 2 -a 0 -i 3 -k MAC
r -t 10.063722852 -s 2 -d 2 -p tcp -e 1040 -c 2 -a 0 -i 3 -k MAC
+ -t 10.063732852 -s 2 -d -1 -p ACK -e 38 -c 2 -a 0 -i 0 -k MAC 
- -t 10.063732852 -s 2 -d -1 -p ACK -e 38 -c 2 -a 0 -i 0 -k MAC
h -t 10.063732852 -s 2 -d -1 -p ACK -e 38 -c 2 -a 0 -i 0 -k MAC
r -t 10.063747852 -s 2 -d 2 -p tcp -e 1040 -c 2 -a 0 -i 3 -k AGT
+ -t 10.063747852 -s 2 -d -1 -p ack -e 40 -c 2 -a 0 -i 5 -k AGT 
- -t 10.063747852 -s 2 -d -1 -p ack -e 40 -c 2 -a 0 -i 5 -k AGT
h -t 10.063747852 -s 2 -d -1 -p ack -e 40 -c 2 -a 0 -i 5 -k AGT
+ -t 10.063747852 -s 2 -d 1 -p ack -e 40 -c 2 -a 0 -i 5 -k RTR 
- -t 10.063747852 -s 2 -d 1 -p ack -e 40 -c 2 -a 0 -i 5 -k RTR
h -t 10.063747852 -s 2 -d 1 -p ack -e 40 -c 2 -a 0 -i 5 -k RTR
r -t 10.064037515 -s 1 -d -1 -p ACK -e 38 -c 2 -a 0 -i 0 -k MAC
+ -t 10.064127515 -s 1 -d -1 -p RTS -e 44 -c 2 -a 0 -i 0 -k MAC 
- -t 10.064127515 -s 1 -d -1 -p RTS -e 44 -c 2 -a 0 -i 0 -k MAC
h -t 10.064127515 -s 1 -d -1 -p RTS -e 44 -c 2 -a 0 -i 0 -k MAC
r -t 10.064479961 -s 0 -d -1 -p RTS -e 44 -c 2 -a 0 -i 0 -k MAC
+ -t 10.064489961 -s 0 -d -1 -p CTS -e 38 -c 2 -a 0 -i 0 -k MAC 
- -t 10.064489961 -s 0 -d -1 -p CTS -e 38 -c 2 -a 0 -i 0 -k MAC
h -t 10.064489961 -s 0 -d -1 -p CTS -e 38 -c 2 -a 0 -i 0 -k MAC
r -t 10.064794407 -s 1 -d -1 -p CTS -e 38 -c 2 -a 0 -i 0 -k MAC
+ -t 10.064804407 -s 1 -d 0 -p ack -e 98 -c 2 -a 0 -i 4 -k MAC 
- -t 10.064804407 -s 1 -d 0 -p ack -e 98 -c 2 -a 0 -i 4 -k MAC
h -t 10.064804407 -s 1 -d 0 -p ack -e 98 -c 2 -a 0 -i 4 -k MAC
r -t 10.065588852 -s 0 -d 0 -p ack -e 40 -c 2 -a 0 -i 4 -k MAC
+ -t 10.065598852 -s 0 -d -1 -p ACK -e 38 -c 2 -a 0 -i 0 -k MAC 
- -t 10.065598852 -s 0 -d -1 -p ACK -e 38 -c 2 -a 0 -i 0 -k MAC
h -t 10.065598852 -s 0 -d -1 -p ACK -e 38 -c 2 -a 0 -i 0 -k MAC
r -t 10.065613852 -s 0 -d 0 -p ack -e 40 -c 2 -a 0 -i 4 -k AGT
+ -t 10.065613852 -s 0 -d -1 -p tcp -e 1040 -c 2 -a 0 -i 6 -k AGT 
- -t 10.065613852 -s 0 -d -1 -p tcp -e 1040 -c 2 -a 0 -i 6 -k AGT
h -t 10.065613852 -s 0 -d -1 -p tcp -e 1040 -c 2 -a 0 -i 6 -k AGT
+ -t 10.065613852 -s 0 -d -1 -p tcp -e 1040 -c 2 -a 0 -i 7 -k AGT 
- -t 10.065613852 -s 0 -d -1 -p tcp -e 1040 -c 2 -a 0 -i 7 -k AGT
h -t 10.065613852 -s 0 -d -1 -p tcp -e 1040 -c 2 -a 0 -i 7 -k AGT
+ -t 10.065613852 -s 0 -d 1 -p tcp -e 1040 -c 2 -a 0 -i 6 -k RTR 
- -t 10.065613852 -s 0 -d 1 -p tcp -e 1040 -c 2 -a 0 -i 6 -k RTR
h -t 10.065613852 -s 0 -d 1 -p tcp -e 1040 -c 2 -a 0 -i 6 -k RTR
+ -t 10.065613852 -s 0 -d 1 -p tcp -e 1040 -c 2 -a 0 -i 7 -k RTR 
- -t 10.065613852 -s 0 -d 1 -p tcp -e 1040 -c 2 -a 0 -i 7 -k RTR
h -t 10.065613852 -s 0 -d 1 -p tcp -e 1040 -c 2 -a 0 -i 7 -k RTR
r -t 10.065903298 -s 1 -d -1 -p ACK -e 38 -c 2 -a 0 -i 0 -k MAC
+ -t 10.066412852 -s 0 -d -1 -p RTS -e 44 -c 2 -a 0 -i 0 -k MAC 
- -t 10.066412852 -s 0 -d -1 -p RTS -e 44 -c 2 -a 0 -i 0 -k MAC
h -t 10.066412852 -s 0 -d -1 -p RTS -e 44 -c 2 -a 0 -i 0 -k MAC
r -t 10.066765298 -s 1 -d -1 -p RTS -e 44 -c 2 -a 0 -i 0 -k MAC
+ -t 10.066775298 -s 1 -d -1 -p CTS -e 38 -c 2 -a 0 -i 0 -k MAC 
- -t 10.066775298 -s 1 -d -1 -p CTS -e 38 -c 2 -a 0 -i 0 -k MAC
h -t 10.066775298 -s 1 -d -1 -p CTS -e 38 -c 2 -a 0 -i 0 -k MAC
r -t 10.067079744 -s 0 -d -1 -p CTS -e 38 -c 2 -a 0 -i 0 -k MAC
+ -t 10.067089744 -s 0 -d 1 -p tcp -e 1098 -c 2 -a 0 -i 6 -k MAC 
- -t 10.067089744 -s 0 -d 1 -p tcp -e 1098 -c 2 -a 0 -i 6 -k MAC
h -t 10.067089744 -s 0 -d 1 -p tcp -e 1098 -c 2 -a 0 -i 6 -k MAC
r -t 10.075874189 -s 1 -d 1 -p tcp -e 1040 -c 2 -a 0 -i 6 -k MAC
+ -t 10.075884189 -s 1 -d -1 -p ACK -e 38 -c 2 -a 0 -i 0 -k MAC 
- -t 10.075884189 -s 1 -d -1 -p ACK -e 38 -c 2 -a 0 -i 0 -k MAC
h -t 10.075884189 -s 1 -d -1 -p ACK -e 38 -c 2 -a 0 -i 0 -k MAC
+ -t 10.075899189 -s 1 -d 2 -p tcp -e 1040 -c 2 -a 0 -i 6 -k RTR 
- -t 10.075899189 -s 1 -d 2 -p tcp -e 1040 -c 2 -a 0 -i 6 -k RTR
h -t 10.075899189 -s 1 -d 2 -p tcp -e 1040 -c 2 -a 0 -i 6 -k RTR
r -t 10.076188635 -s 0 -d -1 -p ACK -e 38 -c 2 -a 0 -i 0 -k MAC
+ -t 10.076378635 -s 0 -d -1 -p RTS -e 44 -c 2 -a 0 -i 0 -k MAC 
- -t 10.076378635 -s 0 -d -1 -p RTS -e 44 -c 2 -a 0 -i 0 -k MAC
h -t 10.076378635 -s 0 -d -1 -p RTS -e 44 -c 2 -a 0 -i 0 -k MAC
r -t 10.076731080 -s 1 -d -1 -p RTS -e 44 -c 2 -a 0 -i 0 -k MAC
+ -t 10.076741080 -s 1 -d -1 -p CTS -e 38 -c 2 -a 0 -i 0 -k MAC 
- -t 10.076741080 -s 1 -d -1 -p CTS -e 38 -c 2 -a 0 -i 0 -k MAC
h -t 10.076741080 -s 1 -d -1 -p CTS -e 38 -c 2 -a 0 -i 0 -k MAC
r -t 10.077045526 -s 0 -d -1 -p CTS -e 38 -c 2 -a 0 -i 0 -k MAC
+ -t 10.077055526 -s 0 -d 1 -p tcp -e 1098 -c 2 -a 0 -i 7 -k MAC 
- -t 10.077055526 -s 0 -d 1 -p tcp -e 1098 -c 2 -a 0 -i 7 -k MAC
h -t 10.077055526 -s 0 -d 1 -p tcp -e 1098 -c 2 -a 0 -i 7 -k MAC
r -t 10.085839971 -s 1 -d 1 -p tcp -e 1040 -c 2 -a 0 -i 7 -k MAC
+ -t 10.085849971 -s 1 -d -1 -p ACK -e 38 -c 2 -a 0 -i 0 -k MAC 
- -t 10.085849971 -s 1 -d -1 -p ACK -e 38 -c 2 -a 0 -i 0 -k MAC
h -t 10.085849971 -s 1 -d -1 -p ACK -e 38 -c 2 -a 0 -i 0 -k MAC
+ -t 10.085864971 -s 1 -d 2 -p tcp -e 1040 -c 2 -a 0 -i 7 -k RTR 
- -t 10.085864971 -s 1 -d 2 -p tcp -e 1040 -c 2 -a 0 -i 7 -k RTR
h -t 10.085864971 -s 1 -d 2 -p tcp -e 1040 -c 2 -a 0 -i 7 -k RTR
r -t 10.086154417 -s 0 -d -1 -p ACK -e 38 -c 2 -a 0 -i 0 -k MAC
+ -t 10.086274479 -s 2 -d -1 -p RTS -e 44 -c 2 -a 0 -i 0 -k MAC 
- -t 10.086274479 -s 2 -d -1 -p RTS -e 44 -c 2 -a 0 -i 0 -k MAC
h -t 10.086274479 -s 2 -d -1 -p RTS -e 44 -c 2 -a 0 -i 0 -k MAC
r -t 10.086627142 -s 1 -d -1 -p RTS -e 44 -c 2 -a 0 -i 0 -k MAC
+ -t 10.086637142 -s 1 -d -1 -p CTS -e 38 -c 2 -a 0 -i 0 -k MAC 
- -t 10.086637142 -s 1 -d -1 -p CTS -e 38 -c 2 -a 0 -i 0 -k MAC
h -t 10.086637142 -s 1 -d -1 -p CTS -e 38 -c 2 -a 0 -i 0 -k MAC
r -t 10.086941805 -s 2 -d -1 -p CTS -e 38 -c 2 -a 0 -i 0 -k MAC
+ -t 10.086951805 -s 2 -d 1 -p ack -e 98 -c 2 -a 0 -i 5 -k MAC 
- -t 10.086951805 -s 2 -d 1 -p ack -e 98 -c 2 -a 0 -i 5 -k MAC
h -t 10.086951805 -s 2 -d 1 -p ack -e 98 -c 2 -a 0 -i 5 -k MAC
r -t 10.087736469 -s 1 -d 1 -p ack -e 40 -c 2 -a 0 -i 5 -k MAC
+ -t 10.087746469 -s 1 -d -1 -p ACK -e 38 -c 2 -a 0 -i 0 -k MAC 
- -t 10.087746469 -s 1 -d -1 -p ACK -e 38 -c 2 -a 0 -i 0 -k MAC
h -t 10.087746469 -s 1 -d -1 -p ACK -e 38 -c 2 -a 0 -i 0 -k MAC
+ -t 10.087761469 -s 1 -d 0 -p ack -e 40 -c 2 -a 0 -i 5 -k RTR 
- -t 10.087761469 -s 1 -d 0 -p ack -e 40 -c 2 -a 0 -i 5 -k RTR
h -t 10.087761469 -s 1 -d 0 -p ack -e 40 -c 2 -a 0 -i 5 -k RTR
r -t 10.088051132 -s 2 -d -1 -p ACK -e 38 -c 2 -a 0 -i 0 -k MAC
+ -t 10.088260469 -s 1 -d -1 -p RTS -e 44 -c 2 -a 0 -i 0 -k MAC 
- -t 10.088260469 -s 1 -d -1 -p RTS -e 44 -c 2 -a 0 -i 0 -k MAC
h -t 10.088260469 -s 1 -d -1 -p RTS -e 44 -c 2 -a 0 -i 0 -k MAC
r -t 10.088613132 -s 2 -d -1 -p RTS -e 44 -c 2 -a 0 -i 0 -k MAC
+ -t 10.088623132 -s 2 -d -1 -p CTS -e 38 -c 2 -a 0 -i 0 -k MAC 
- -t 10.088623132 -s 2 -d -1 -p CTS -e 38 -c 2 -a 0 -i 0 -k MAC
h -t 10.088623132 -s 2 -d -1 -p CTS -e 38 -c 2 -a 0 -i 0 -k MAC
r -t 10.088927795 -s 1 -d -1 -p CTS -e 38 -c 2 -a 0 -i 0 -k MAC
+ -t 10.088937795 -s 1 -d 2 -p tcp -e 1098 -c 2 -a 0 -i 6 -k MAC 
- -t 10.088937795 -s 1 -d 2 -p tcp -e 1098 -c 2 -a 0 -i 6 -k MAC
h -t 10.088937795 -s 1 -d 2 -p tcp -e 1098 -c 2 -a 0 -i 6 -k MAC
r -t 10.097722459 -s 2 -d 2 -p tcp -e 1040 -c 2 -a 0 -i 6 -k MAC
+ -t 10.097732459 -s 2 -d -1 -p ACK -e 38 -c 2 -a 0 -i 0 -k MAC 
- -t 10.097732459 -s 2 -d -1 -p ACK -e 38 -c 2 -a 0 -i 0 -k MAC
h -t 10.097732459 -s 2 -d -1 -p ACK -e 38 -c 2 -a 0 -i 0 -k MAC
r -t 10.097747459 -s 2 -d 2 -p tcp -e 1040 -c 2 -a 0 -i 6 -k AGT
+ -t 10.097747459 -s 2 -d -1 -p ack -e 40 -c 2 -a 0 -i 8 -k AGT 
- -t 10.097747459 -s 2 -d -1 -p ack -e 40 -c 2 -a 0 -i 8 -k AGT
h -t 10.097747459 -s 2 -d -1 -p ack -e 40 -c 2 -a 0 -i 8 -k AGT
+ -t 10.097747459 -s 2 -d 1 -p ack -e 40 -c 2 -a 0 -i 8 -k RTR 
- -t 10.097747459 -s 2 -d 1 -p ack -e 40 -c 2 -a 0 -i 8 -k RTR
h -t 10.097747459 -s 2 -d 1 -p ack -e 40 -c 2 -a 0 -i 8 -k RTR
r -t 10.098037122 -s 1 -d -1 -p ACK -e 38 -c 2 -a 0 -i 0 -k MAC
+ -t 10.098226459 -s 2 -d -1 -p RTS -e 44 -c 2 -a 0 -i 0 -k MAC 
- -t 10.098226459 -s 2 -d -1 -p RTS -e 44 -c 2 -a 0 -i 0 -k MAC
h -t 10.098226459 -s 2 -d -1 -p RTS -e 44 -c 2 -a 0 -i 0 -k MAC
r -t 10.098579122 -s 1 -d -1 -p RTS -e 44 -c 2 -a 0 -i 0 -k MAC
+ -t 10.098589122 -s 1 -d -1 -p CTS -e 38 -c 2 -a 0 -i 0 -k MAC 
- -t 10.098589122 -s 1 -d -1 -p CTS -e 38 -c 2 -a 0 -i 0 -k MAC
h -t 10.098589122 -s 1 -d -1 -p CTS -e 38 -c 2 -a 0 -i 0 -k MAC
r -t 10.098893785 -s 2 -d -1 -p CTS -e 38 -c 2 -a 0 -i 0 -k MAC
+ -t 10.098903785 -s 2 -d 1 -p ack -e 98 -c 2 -a 0 -i 8 -k MAC 
- -t 10.098903785 -s 2 -d 1 -p ack -e 98 -c 2 -a 0 -i 8 -k MAC
h -t 10.098903785 -s 2 -d 1 -p ack -e 98 -c 2 -a 0 -i 8 -k MAC
r -t 10.099688449 -s 1 -d 1 -p ack -e 40 -c 2 -a 0 -i 8 -k MAC
+ -t 10.099698449 -s 1 -d -1 -p ACK -e 38 -c 2 -a 0 -i 0 -k MAC 
- -t 10.099698449 -s 1 -d -1 -p ACK -e 38 -c 2 -a 0 -i 0 -k MAC
h -t 10.099698449 -s 1 -d -1 -p ACK -e 38 -c 2 -a 0 -i 0 -k MAC
+ -t 10.099713449 -s 1 -d 0 -p ack -e 40 -c 2 -a 0 -i 8 -k RTR 
- -t 10.099713449 -s 1 -d 0 -p ack -e 40 -c 2 -a 0 -i 8 -k RTR
h -t 10.099713449 -s 1 -d 0 -p ack -e 40 -c 2 -a 0 -i 8 -k RTR
r -t 10.100003112 -s 2 -d -1 -p ACK -e 38 -c 2 -a 0 -i 0 -k MAC
+ -t 10.100112449 -s 1 -d -1 -p RTS -e 44 -c 2 -a 0 -i 0 -k MAC 
- -t 10.100112449 -s 1 -d -1 -p RTS -e 44 -c 2 -a 0 -i 0 -k MAC
h -t 10.100112449 -s 1 -d -1 -p RTS -e 44 -c 2 -a 0 -i 0 -k MAC
r -t 10.100464894 -s 0 -d -1 -p RTS -e 44 -c 2 -a 0 -i 0 -k MAC
+ -t 10.100474894 -s 0 -d -1 -p CTS -e 38 -c 2 -a 0 -i 0 -k MAC 
- -t 10.100474894 -s 0 -d -1 -p CTS -e 38 -c 2 -a 0 -i 0 -k MAC
h -t 10.100474894 -s 0 -d -1 -p CTS -e 38 -c 2 -a 0 -i 0 -k MAC
r -t 10.100779339 -s 1 -d -1 -p CTS -e 38 -c 2 -a 0 -i 0 -k MAC
+ -t 10.100789339 -s 1 -d 0 -p ack -e 98 -c 2 -a 0 -i 5 -k MAC 
- -t 10.100789339 -s 1 -d 0 -p ack -e 98 -c 2 -a 0 -i 5 -k MAC
h -t 10.100789339 -s 1 -d 0 -p ack -e 98 -c 2 -a 0 -i 5 -k MAC
r -t 10.101573785 -s 0 -d 0 -p ack -e 40 -c 2 -a 0 -i 5 -k MAC
+ -t 10.101583785 -s 0 -d -1 -p ACK -e 38 -c 2 -a 0 -i 0 -k MAC 
- -t 10.101583785 -s 0 -d -1 -p ACK -e 38 -c 2 -a 0 -i 0 -k MAC
h -t 10.101583785 -s 0 -d -1 -p ACK -e 38 -c 2 -a 0 -i 0 -k MAC
r -t 10.101598785 -s 0 -d 0 -p ack -e 40 -c 2 -a 0 -i 5 -k AGT
+ -t 10.101598785 -s 0 -d -1 -p tcp -e 1040 -c 2 -a 0 -i 9 -k AGT 
- -t 10.101598785 -s 0 -d -1 -p tcp -e 1040 -c 2 -a 0 -i 9 -k AGT
h -t 10.101598785 -s 0 -d -1 -p tcp -e 1040 -c 2 -a 0 -i 9 -k AGT
+ -t 10.101598785 -s 0 -d -1 -p tcp -e 1040 -c 2 -a 0 -i 10 -k AGT 
- -t 10.101598785 -s 0 -d -1 -p tcp -e 1040 -c 2 -a 0 -i 10 -k AGT
h -t 10.101598785 -s 0 -d -1 -p tcp -e 1040 -c 2 -a 0 -i 10 -k AGT
+ -t 10.101598785 -s 0 -d 1 -p tcp -e 1040 -c 2 -a 0 -i 9 -k RTR 
- -t 10.101598785 -s 0 -d 1 -p tcp -e 1040 -c 2 -a 0 -i 9 -k RTR
h -t 10.101598785 -s 0 -d 1 -p tcp -e 1040 -c 2 -a 0 -i 9 -k RTR
+ -t 10.101598785 -s 0 -d 1 -p tcp -e 1040 -c 2 -a 0 -i 10 -k RTR 
- -t 10.101598785 -s 0 -d 1 -p tcp -e 1040 -c 2 -a 0 -i 10 -k RTR
h -t 10.101598785 -s 0 -d 1 -p tcp -e 1040 -c 2 -a 0 -i 10 -k RTR
r -t 10.101888230 -s 1 -d -1 -p ACK -e 38 -c 2 -a 0 -i 0 -k MAC
+ -t 10.102158230 -s 1 -d -1 -p RTS -e 44 -c 2 -a 0 -i 0 -k MAC 
- -t 10.102158230 -s 1 -d -1 -p RTS -e 44 -c 2 -a 0 -i 0 -k MAC
h -t 10.102158230 -s 1 -d -1 -p RTS -e 44 -c 2 -a 0 -i 0 -k MAC
r -t 10.102510675 -s 0 -d -1 -p RTS -e 44 -c 2 -a 0 -i 0 -k MAC