n -t 0 -s 0 -S DLABEL -l "s" -L ""
n -t 0 -s 1 -S DLABEL -l "c" -L ""
V -t * -v 1.0a5 -a 0
A -t * -n 1 -p 0 -o 0x7fffffff -c 30 -a 1
A -t * -h 1 -m 1073741823 -s 0
c -t * -i 1 -n blue
n -t * -a 0 -s 0 -S UP -v circle -c black -i black
n -t * -a 1 -s 1 -S UP -v circle -c black -i black
l -t * -s 0 -d 1 -S UP -r 10000000 -D 0.021999999999999999 -c black -o right
+ -t 0.1 -s 0 -d 1 -p tcp -e 40 -c 1 -i 0 -a 1 -x {0.0 1.0 0 ------- null}
- -t 0.1 -s 0 -d 1 -p tcp -e 40 -c 1 -i 0 -a 1 -x {0.0 1.0 0 ------- null}
h -t 0.1 -s 0 -d 1 -p tcp -e 40 -c 1 -i 0 -a 1 -x {0.0 1.0 -1 ------- null}
r -t 0.122032 -s 0 -d 1 -p tcp -e 40 -c 1 -i 0 -a 1 -x {0.0 1.0 0 ------- null}
+ -t 0.122032 -s 1 -d 0 -p ack -e 40 -c 1 -i 1 -a 1 -x {1.0 0.0 0 ------- null}
- -t 0.122032 -s 1 -d 0 -p ack -e 40 -c 1 -i 1 -a 1 -x {1.0 0.0 0 ------- null}
h -t 0.122032 -s 1 -d 0 -p ack -e 40 -c 1 -i 1 -a 1 -x {1.0 0.0 -1 ------- null}
r -t 0.144064 -s 1 -d 0 -p ack -e 40 -c 1 -i 1 -a 1 -x {1.0 0.0 0 ------- null}
+ -t 0.144064 -s 0 -d 1 -p tcp -e 1540 -c 1 -i 2 -a 1 -x {0.0 1.0 1 ------- null}
- -t 0.144064 -s 0 -d 1 -p tcp -e 1540 -c 1 -i 2 -a 1 -x {0.0 1.0 1 ------- null}
h -t 0.144064 -s 0 -d 1 -p tcp -e 1540 -c 1 -i 2 -a 1 -x {0.0 1.0 -1 ------- null}
+ -t 0.144064 -s 0 -d 1 -p tcp -e 1540 -c 1 -i 3 -a 1 -x {0.0 1.0 2 ------- null}
- -t 0.145296 -s 0 -d 1 -p tcp -e 1540 -c 1 -i 3 -a 1 -x {0.0 1.0 2 ------- null}
h -t 0.145296 -s 0 -d 1 -p tcp -e 1540 -c 1 -i 3 -a 1 -x {0.0 1.0 -1 ------- null}
r -t 0.167296 -s 0 -d 1 -p tcp -e 1540 -c 1 -i 2 -a 1 -x {0.0 1.0 1 ------- null}
+ -t 0.167296 -s 1 -d 0 -p ack -e 40 -c 1 -i 4 -a 1 -x {1.0 0.0 1 ------- null}
- -t 0.167296 -s 1 -d 0 -p ack -e 40 -c 1 -i 4 -a 1 -x {1.0 0.0 1 ------- null}
h -t 0.167296 -s 1 -d 0 -p ack -e 40 -c 1 -i 4 -a 1 -x {1.0 0.0 -1 ------- null}
r -t 0.168528 -s 0 -d 1 -p tcp -e 1540 -c 1 -i 3 -a 1 -x {0.0 1.0 2 ------- null}
+ -t 0.168528 -s 1 -d 0 -p ack -e 40 -c 1 -i 5 -a 1 -x {1.0 0.0 2 ------- null}
- -t 0.168528 -s 1 -d 0 -p ack -e 40 -c 1 -i 5 -a 1 -x {1.0 0.0 2 ------- null}
h -t 0.168528 -s 1 -d 0 -p ack -e 40 -c 1 -i 5 -a 1 -x {1.0 0.0 -1 ------- null}
r -t 0.189328 -s 1 -d 0 -p ack -e 40 -c 1 -i 4 -a 1 -x {1.0 0.0 1 ------- null}
+ -t 0.189328 -s 0 -d 1 -p tcp -e 1540 -c 1 -i 6 -a 1 -x {0.0 1.0 3 ------- null}
- -t 0.189328 -s 0 -d 1 -p tcp -e 1540 -c 1 -i 6 -a 1 -x {0.0 1.0 3 ------- null}
h -t 0.189328 -s 0 -d 1 -p tcp -e 1540 -c 1 -i 6 -a 1 -x {0.0 1.0 -1 ------- null}
+ -t 0.189328 -s 0 -d 1 -p tcp -e 1540 -c 1 -i 7 -a 1 -x {0.0 1.0 4 ------- null}
r -t 0.19056 -s 1 -d 0 -p ack -e 40 -c 1 -i 5 -a 1 -x {1.0 0.0 2 ------- null}
+ -t 0.19056 -s 0 -d 1 -p tcp -e 1540 -c 1 -i 8 -a 1 -x {0.0 1.0 5 ------- null}
+ -t 0.19056 -s 0 -d 1 -p tcp -e 1540 -c 1 -i 9 -a 1 -x {0.0 1.0 6 ------- null}
- -t 0.19056 -s 0 -d 1 -p tcp -e 1540 -c 1 -i 7 -a 1 -x {0.0 1.0 4 ------- null}
h -t 0.19056 -s 0 -d 1 -p tcp -e 1540 -c 1 -i 7 -a 1 -x {0.0 1.0 -1 ------- null}
- -t 0.191792 -s 0 -d 1 -p tcp -e 1540 -c 1 -i 8 -a 1 -x {0.0 1.0 5 ------- null}
h -t 0.191792 -s 0 -d 1 -p tcp -e 1540 -c 1 -i 8 -a 1 -x {0.0 1.0 -1 ------- null}
- -t 0.193024 -s 0 -d 1 -p tcp -e 1540 -c 1 -i 9 -a 1 -x {0.0 1.0 6 ------- null}
h -t 0.193024 -s 0 -d 1 -p tcp -e 1540 -c 1 -i 9 -a 1 -x {0.0 1.0 -1 ------- null}
r -t 0.21256 -s 0 -d 1 -p tcp -e 1540 -c 1 -i 6 -a 1 -x {0.0 1.0 3 ------- null}
+ -t 0.21256 -s 1 -d 0 -p ack -e 40 -c 1 -i 10 -a 1 -x {1.0 0.0 3 ------- null}
- -t 0.21256 -s 1 -d 0 -p ack -e 40 -c 1 -i 10 -a 1 -x {1.0 0.0 3 ------- null}
h -t 0.21256 -s 1 -d 0 -p ack -e 40 -c 1 -i 10 -a 1 -x {1.0 0.0 -1 ------- null}
r -t 0.213792 -s 0 -d 1 -p tcp -e 1540 -c 1 -i 7 -a 1 -x {0.0 1.0 4 ------- null}
+ -t 0.213792 -s 1 -d 0 -p ack -e 40 -c 1 -i 11 -a 1 -x {1.0 0.0 4 ------- null}
- -t 0.213792 -s 1 -d 0 -p ack -e 40 -c 1 -i 11 -a 1 -x {1.0 0.0 4 ------- null}
h -t 0.213792 -s 1 -d 0 -p ack -e 40 -c 1 -i 11 -a 1 -x {1.0 0.0 -1 ------- null}
r -t 0.215024 -s 0 -d 1 -p tcp -e 1540 -c 1 -i 8 -a 1 -x {0.0 1.0 5 ------- null}
+ -t 0.215024 -s 1 -d 0 -p ack -e 40 -c 1 -i 12 -a 1 -x {1.0 0.0 5 ------- null}
- -t 0.215024 -s 1 -d 0 -p ack -e 40 -c 1 -i 12 -a 1 -x {1.0 0.0 5 ------- null}
h -t 0.215024 -s 1 -d 0 -p ack -e 40 -c 1 -i 12 -a 1 -x {1.0 0.0 -1 ------- null}
r -t 0.216256 -s 0 -d 1 -p tcp -e 1540 -c 1 -i 9 -a 1 -x {0.0 1.0 6 ------- null}
+ -t 0.216256 -s 1 -d 0 -p ack -e 40 -c 1 -i 13 -a 1 -x {1.0 0.0 6 ------- null}
- -t 0.216256 -s 1 -d 0 -p ack -e 40 -c 1 -i 13 -a 1 -x {1.0 0.0 6 ------- null}
h -t 0.216256 -s 1 -d 0 -p ack -e 40 -c 1 -i 13 -a 1 -x {1.0 0.0 -1 ------- null}
r -t 0.234592 -s 1 -d 0 -p ack -e 40 -c 1 -i 10 -a 1 -x {1.0 0.0 3 ------- null}
+ -t 0.234592 -s 0 -d 1 -p tcp -e 1540 -c 1 -i 14 -a 1 -x {0.0 1.0 7 ------- null}
- -t 0.234592 -s 0 -d 1 -p tcp -e 1540 -c 1 -i 14 -a 1 -x {0.0 1.0 7 ------- null}
h -t 0.234592 -s 0 -d 1 -p tcp -e 1540 -c 1 -i 14 -a 1 -x {0.0 1.0 -1 ------- null}
+ -t 0.234592 -s 0 -d 1 -p tcp -e 1540 -c 1 -i 15 -a 1 -x {0.0 1.0 8 ------- null}
r -t 0.235824 -s 1 -d 0 -p ack -e 40 -c 1 -i 11 -a 1 -x {1.0 0.0 4 ------- null}
+ -t 0.235824 -s 0 -d 1 -p tcp -e 1540 -c 1 -i 16 -a 1 -x {0.0 1.0 9 ------- null}
+ -t 0.235824 -s 0 -d 1 -p tcp -e 1540 -c 1 -i 17 -a 1 -x {0.0 1.0 10 ------- null}
- -t 0.235824 -s 0 -d 1 -p tcp -e 1540 -c 1 -i 15 -a 1 -x {0.0 1.0 8 ------- null}
h -t 0.235824 -s 0 -d 1 -p tcp -e 1540 -c 1 -i 15 -a 1 -x {0.0 1.0 -1 ------- null}
r -t 0.237056 -s 1 -d 0 -p ack -e 40 -c 1 -i 12 -a 1 -x {1.0 0.0 5 ------- null}
+ -t 0.237056 -s 0 -d 1 -p tcp -e 1540 -c 1 -i 18 -a 1 -x {0.0 1.0 11 ------- null}
+ -t 0.237056 -s 0 -d 1 -p tcp -e 1540 -c 1 -i 19 -a 1 -x {0.0 1.0 12 ------- null}
- -t 0.237056 -s 0 -d 1 -p tcp -e 1540 -c 1 -i 16 -a 1 -x {0.0 1.0 9 ------- null}
h -t 0.237056 -s 0 -d 1 -p tcp -e 1540 -c 1 -i 16 -a 1 -x {0.0 1.0 -1 ------- null}
r -t 0.238288 -s 1 -d 0 -p ack -e 40 -c 1 -i 13 -a 1 -x {1.0 0.0 6 ------- null}
+ -t 0.238288 -s 0 -d 1 -p tcp -e 1540 -c 1 -i 20 -a 1 -x {0.0 1.0 13 ------- null}
+ -t 0.238288 -s 0 -d 1 -p tcp -e 1540 -c 1 -i 21 -a 1 -x {0.0 1.0 14 ------- null}
- -t 0.238288 -s 0 -d 1 -p tcp -e 1540 -c 1 -i 17 -a 1 -x {0.0 1.0 10 ------- null}
h -t 0.238288 -s 0 -d 1 -p tcp -e 1540 -c 1 -i 17 -a 1 -x {0.0 1.0 -1 ------- null}
- -t 0.23952 -s 0 -d 1 -p tcp -e 1540 -c 1 -i 18 -a 1 -x {0.0 1.0 11 ------- null}
h -t 0.23952 -s 0 -d 1 -p tcp -e 1540 -c 1 -i 18 -a 1 -x {0.0 1.0 -1 ------- null}
- -t 0.240752 -s 0 -d 1 -p tcp -e 1540 -c 1 -i 19 -a 1 -x {0.0 1.0 12 ------- null}
h -t 0.240752 -s 0 -d 1 -p tcp -e 1540 -c 1 -i 19 -a 1 -x {0.0 1.0 -1 ------- null}
- -t 0.241984 -s 0 -d 1 -p tcp -e 1540 -c 1 -i 20 -a 1 -x {0.0 1.0 13 ------- null}
h -t 0.241984 -s 0 -d 1 -p tcp -e 1540 -c 1 -i 20 -a 1 -x {0.0 1.0 -1 ------- null}
- -t 0.243216 -s 0 -d 1 -p tcp -e 1540 -c 1 -i 21 -a 1 -x {0.0 1.0 14 ------- null}
h -t 0.243216 -s 0 -d 1 -p tcp -e 1540 -c 1 -i 21 -a 1 -x {0.0 1.0 -1 ------- null}
r -t 0.257824 -s 0 -d 1 -p tcp -e 1540 -c 1 -i 14 -a 1 -x {0.0 1.0 7 ------- null}
+ -t 0.257824 -s 1 -d 0 -p ack -e 40 -c 1 -i 22 -a 1 -x {1.0 0.0 7 ------- null}
- -t 0.257824 -s 1 -d 0 -p ack -e 40 -c 1 -i 22 -a 1 -x {1.0 0.0 7 ------- null}
h -t 0.257824 -s 1 -d 0 -p ack -e 40 -c 1 -i 22 -a 1 -x {1.0 0.0 -1 ------- null}
r -t 0.259056 -s 0 -d 1 -p tcp -e 1540 -c 1 -i 15 -a 1 -x {0.0 1.0 8 ------- null}
+ -t 0.259056 -s 1 -d 0 -p ack -e 40 -c 1 -i 23 -a 1 -x {1.0 0.0 8 ------- null}
- -t 0.259056 -s 1 -d 0 -p ack -e 40 -c 1 -i 23 -a 1 -x {1.0 0.0 8 ------- null}
h -t 0.259056 -s 1 -d 0 -p ack -e 40 -c 1 -i 23 -a 1 -x {1.0 0.0 -1 ------- null}
r -t 0.260288 -s 0 -d 1 -p tcp -e 1540 -c 1 -i 16 -a 1 -x {0.0 1.0 9 ------- null}
+ -t 0.260288 -s 1 -d 0 -p ack -e 40 -c 1 -i 24 -a 1 -x {1.0 0.0 9 ------- null}
- -t 0.260288 -s 1 -d 0 -p ack -e 40 -c 1 -i 24 -a 1 -x {1.0 0.0 9 ------- null}
h -t 0.260288 -s 1 -d 0 -p ack -e 40 -c 1 -i 24 -a 1 -x {1.0 0.0 -1 ------- null}
r -t 0.26152 -s 0 -d 1 -p tcp -e 1540 -c 1 -i 17 -a 1 -x {0.0 1.0 10 ------- null}
+ -t 0.26152 -s 1 -d 0 -p ack -e 40 -c 1 -i 25 -a 1 -x {1.0 0.0 10 ------- null}
- -t 0.26152 -s 1 -d 0 -p ack -e 40 -c 1 -i 25 -a 1 -x {1.0 0.0 10 ------- null}
h -t 0.26152 -s 1 -d 0 -p ack -e 40 -c 1 -i 25 -a 1 -x {1.0 0.0 -1 ------- null}
r -t 0.262752 -s 0 -d 1 -p tcp -e 1540 -c 1 -i 18 -a 1 -x {0.0 1.0 11 ------- null}
+ -t 0.262752 -s 1 -d 0 -p ack -e 40 -c 1 -i 26 -a 1 -x {1.0 0.0 11 ------- null}
- -t 0.262752 -s 1 -d 0 -p ack -e 40 -c 1 -i 26 -a 1 -x {1.0 0.0 11 ------- null}
h -t 0.262752 -s 1 -d 0 -p ack -e 40 -c 1 -i 26 -a 1 -x {1.0 0.0 -1 ------- null}
r -t 0.263984 -s 0 -d 1 -p tcp -e 1540 -c 1 -i 19 -a 1 -x {0.0 1.0 12 ------- null}
+ -t 0.263984 -s 1 -d 0 -p ack -e 40 -c 1 -i 27 -a 1 -x {1.0 0.0 12 ------- null}
- -t 0.263984 -s 1 -d 0 -p ack -e 40 -c 1 -i 27 -a 1 -x {1.0 0.0 12 ------- null}
h -t 0.263984 -s 1 -d 0 -p ack -e 40 -c 1 -i 27 -a 1 -x {1.0 0.0 -1 ------- null}
r -t 0.265216 -s 0 -d 1 -p tcp -e 1540 -c 1 -i 20 -a 1 -x {0.0 1.0 13 ------- null}
+ -t 0.265216 -s 1 -d 0 -p ack -e 40 -c 1 -i 28 -a 1 -x {1.0 0.0 13 ------- null}
- -t 0.265216 -s 1 -d 0 -p ack -e 40 -c 1 -i 28 -a 1 -x {1.0 0.0 13 ------- null}
h -t 0.265216 -s 1 -d 0 -p ack -e 40 -c 1 -i 28 -a 1 -x {1.0 0.0 -1 ------- null}
r -t 0.266448 -s 0 -d 1 -p tcp -e 1540 -c 1 -i 21 -a 1 -x {0.0 1.0 14 ------- null}
+ -t 0.266448 -s 1 -d 0 -p ack -e 40 -c 1 -i 29 -a 1 -x {1.0 0.0 14 ------- null}
- -t 0.266448 -s 1 -d 0 -p ack -e 40 -c 1 -i 29 -a 1 -x {1.0 0.0 14 ------- null}
h -t 0.266448 -s 1 -d 0 -p ack -e 40 -c 1 -i 29 -a 1 -x {1.0 0.0 -1 ------- null}
r -t 0.279856 -s 1 -d 0 -p ack -e 40 -c 1 -i 22 -a 1 -x {1.0 0.0 7 ------- null}
+ -t 0.279856 -s 0 -d 1 -p tcp -e 1540 -c 1 -i 30 -a 1 -x {0.0 1.0 15 ------- null}
- -t 0.279856 -s 0 -d 1 -p tcp -e 1540 -c 1 -i 30 -a 1 -x {0.0 1.0 15 ------- null}
h -t 0.279856 -s 0 -d 1 -p tcp -e 1540 -c 1 -i 30 -a 1 -x {0.0 1.0 -1 ------- null}
+ -t 0.279856 -s 0 -d 1 -p tcp -e 1540 -c 1 -i 31 -a 1 -x {0.0 1.0 16 ------- null}
r -t 0.281088 -s 1 -d 0 -p ack -e 40 -c 1 -i 23 -a 1 -x {1.0 0.0 8 ------- null}
+ -t 0.281088 -s 0 -d 1 -p tcp -e 1540 -c 1 -i 32 -a 1 -x {0.0 1.0 17 ------- null}
+ -t 0.281088 -s 0 -d 1 -p tcp -e 1540 -c 1 -i 33 -a 1 -x {0.0 1.0 18 ------- null}
- -t 0.281088 -s 0 -d 1 -p tcp -e 1540 -c 1 -i 31 -a 1 -x {0.0 1.0 16 ------- null}
h -t 0.281088 -s 0 -d 1 -p tcp -e 1540 -c 1 -i 31 -a 1 -x {0.0 1.0 -1 ------- null}
r -t 0.28232 -s 1 -d 0 -p ack -e 40 -c 1 -i 24 -a 1 -x {1.0 0.0 9 ------- null}
+ -t 0.28232 -s 0 -d 1 -p tcp -e 1540 -c 1 -i 34 -a 1 -x {0.0 1.0 19 ------- null}
+ -t 0.28232 -s 0 -d 1 -p tcp -e 1540 -c 1 -i 35 -a 1 -x {0.0 1.0 20 ------- null}
- -t 0.28232 -s 0 -d 1 -p tcp -e 1540 -c 1 -i 32 -a 1 -x {0.0 1.0 17 ------- null}
h -t 0.28232 -s 0 -d 1 -p tcp -e 1540 -c 1 -i 32 -a 1 -x {0.0 1.0 -1 ------- null}
r -t 0.283552 -s 1 -d 0 -p ack -e 40 -c 1 -i 25 -a 1 -x {1.0 0.0 10 ------- null}
+ -t 0.283552 -s 0 -d 1 -p tcp -e 1540 -c 1 -i 36 -a 1 -x {0.0 1.0 21 ------- null}
+ -t 0.283552 -s 0 -d 1 -p tcp -e 1540 -c 1 -i 37 -a 1 -x {0.0 1.0 22 ------- null}
- -t 0.283552 -s 0 -d 1 -p tcp -e 1540 -c 1 -i 33 -a 1 -x {0.0 1.0 18 ------- null}
h -t 0.283552 -s 0 -d 1 -p tcp -e 1540 -c 1 -i 33 -a 1 -x {0.0 1.0 -1 ------- null}
r -t 0.284784 -s 1 -d 0 -p ack -e 40 -c 1 -i 26 -a 1 -x {1.0 0.0 11 ------- null}
+ -t 0.284784 -s 0 -d 1 -p tcp -e 1540 -c 1 -i 38 -a 1 -x {0.0 1.0 23 ------- null}
+ -t 0.284784 -s 0 -d 1 -p tcp -e 1540 -c 1 -i 39 -a 1 -x {0.0 1.0 24 ------- null}
- -t 0.284784 -s 0 -d 1 -p tcp -e 1540 -c 1 -i 34 -a 1 -x {0.0 1.0 19 ------- null}
h -t 0.284784 -s 0 -d 1 -p tcp -e 1540 -c 1 -i 34 -a 1 -x {0.0 1.0 -1 ------- null}
r -t 0.286016 -s 1 -d 0 -p ack -e 40 -c 1 -i 27 -a 1 -x {1.0 0.0 12 ------- null}
+ -t 0.286016 -s 0 -d 1 -p tcp -e 1540 -c 1 -i 40 -a 1 -x {0.0 1.0 25 ------- null}
+ -t 0.286016 -s 0 -d 1 -p tcp -e 1540 -c 1 -i 41 -a 1 -x {0.0 1.0 26 ------- null}
- -t 0.286016 -s 0 -d 1 -p tcp -e 1540 -c 1 -i 35 -a 1 -x {0.0 1.0 20 ------- null}
h -t 0.286016 -s 0 -d 1 -p tcp -e 1540 -c 1 -i 35 -a 1 -x {0.0 1.0 -1 ------- null}
r -t 0.287248 -s 1 -d 0 -p ack -e 40 -c 1 -i 28 -a 1 -x {1.0 0.0 13 ------- null}
+ -t 0.287248 -s 0 -d 1 -p tcp -e 1540 -c 1 -i 42 -a 1 -x {0.0 1.0 27 ------- null}
+ -t 0.287248 -s 0 -d 1 -p tcp -e 1540 -c 1 -i 43 -a 1 -x {0.0 1.0 28 ------- null}
- -t 0.287248 -s 0 -d 1 -p tcp -e 1540 -c 1 -i 36 -a 1 -x {0.0 1.0 21 ------- null}
h -t 0.287248 -s 0 -d 1 -p tcp -e 1540 -c 1 -i 36 -a 1 -x {0.0 1.0 -1 ------- null}
r -t 0.28848 -s 1 -d 0 -p ack -e 40 -c 1 -i 29 -a 1 -x {1.0 0.0 14 ------- null}
+ -t 0.28848 -s 0 -d 1 -p tcp -e 1540 -c 1 -i 44 -a 1 -x {0.0 1.0 29 ------- null}
+ -t 0.28848 -s 0 -d 1 -p tcp -e 1540 -c 1 -i 45 -a 1 -x {0.0 1.0 30 ------- null}
- -t 0.28848 -s 0 -d 1 -p tcp -e 1540 -c 1 -i 37 -a 1 -x {0.0 1.0 22 ------- null}
h -t 0.28848 -s 0 -d 1 -p tcp -e 1540 -c 1 -i 37 -a 1 -x {0.0 1.0 -1 ------- null}
- -t 0.289712 -s 0 -d 1 -p tcp -e 1540 -c 1 -i 38 -a 1 -x {0.0 1.0 23 ------- null}
h -t 0.289712 -s 0 -d 1 -p tcp -e 1540 -c 1 -i 38 -a 1 -x {0.0 1.0 -1 ------- null}
- -t 0.290944 -s 0 -d 1 -p tcp -e 1540 -c 1 -i 39 -a 1 -x {0.0 1.0 24 ------- null}
h -t 0.290944 -s 0 -d 1 -p tcp -e 1540 -c 1 -i 39 -a 1 -x {0.0 1.0 -1 ------- null}
- -t 0.292176 -s 0 -d 1 -p tcp -e 1540 -c 1 -i 40 -a 1 -x {0.0 1.0 25 ------- null}
h -t 0.292176 -s 0 -d 1 -p tcp -e 1540 -c 1 -i 40 -a 1 -x {0.0 1.0 -1 ------- null}
- -t 0.293408 -s 0 -d 1 -p tcp -e 1540 -c 1 -i 41 -a 1 -x {0.0 1.0 26 ------- null}
h -t 0.293408 -s 0 -d 1 -p tcp -e 1540 -c 1 -i 41 -a 1 -x {0.0 1.0 -1 ------- null}
- -t 0.29464 -s 0 -d 1 -p tcp -e 1540 -c 1 -i 42 -a 1 -x {0.0 1.0 27 ------- null}
h -t 0.29464 -s 0 -d 1 -p tcp -e 1540 -c 1 -i 42 -a 1 -x {0.0 1.0 -1 ------- null}
- -t 0.295872 -s 0 -d 1 -p tcp -e 1540 -c 1 -i 43 -a 1 -x {0.0 1.0 28 ------- null}
h -t 0.295872 -s 0 -d 1 -p tcp -e 1540 -c 1 -i 43 -a 1 -x {0.0 1.0 -1 ------- null}
- -t 0.297104 -s 0 -d 1 -p tcp -e 1540 -c 1 -i 44 -a 1 -x {0.0 1.0 29 ------- null}
h -t 0.297104 -s 0 -d 1 -p tcp -e 1540 -c 1 -i 44 -a 1 -x {0.0 1.0 -1 ------- null}
- -t 0.298336 -s 0 -d 1 -p tcp -e 1540 -c 1 -i 45 -a 1 -x {0.0 1.0 30 ------- null}
h -t 0.298336 -s 0 -d 1 -p tcp -e 1540 -c 1 -i 45 -a 1 -x {0.0 1.0 -1 ------- null}
r -t 0.303088 -s 0 -d 1 -p tcp -e 1540 -c 1 -i 30 -a 1 -x {0.0 1.0 15 ------- null}
+ -t 0.303088 -s 1 -d 0 -p ack -e 40 -c 1 -i 46 -a 1 -x {1.0 0.0 15 ------- null}
- -t 0.303088 -s 1 -d 0 -p ack -e 40 -c 1 -i 46 -a 1 -x {1.0 0.0 15 ------- null}
h -t 0.303088 -s 1 -d 0 -p ack -e 40 -c 1 -i 46 -a 1 -x {1.0 0.0 -1 ------- null}
r -t 0.30432 -s 0 -d 1 -p tcp -e 1540 -c 1 -i 31 -a 1 -x {0.0 1.0 16 ------- null}
+ -t 0.30432 -s 1 -d 0 -p ack -e 40 -c 1 -i 47 -a 1 -x {1.0 0.0 16 ------- null}
- -t 0.30432 -s 1 -d 0 -p ack -e 40 -c 1 -i 47 -a 1 -x {1.0 0.0 16 ------- null}
h -t 0.30432 -s 1 -d 0 -p ack -e 40 -c 1 -i 47 -a 1 -x {1.0 0.0 -1 ------- null}
r -t 0.305552 -s 0 -d 1 -p tcp -e 1540 -c 1 -i 32 -a 1 -x {0.0 1.0 17 ------- null}
+ -t 0.305552 -s 1 -d 0 -p ack -e 40 -c 1 -i 48 -a 1 -x {1.0 0.0 17 ------- null}
- -t 0.305552 -s 1 -d 0 -p ack -e 40 -c 1 -i 48 -a 1 -x {1.0 0.0 17 ------- null}
h -t 0.305552 -s 1 -d 0 -p ack -e 40 -c 1 -i 48 -a 1 -x {1.0 0.0 -1 ------- null}
r -t 0.306784 -s 0 -d 1 -p tcp -e 1540 -c 1 -i 33 -a 1 -x {0.0 1.0 18 ------- null}
+ -t 0.306784 -s 1 -d 0 -p ack -e 40 -c 1 -i 49 -a 1 -x {1.0 0.0 18 ------- null}
- -t 0.306784 -s 1 -d 0 -p ack -e 40 -c 1 -i 49 -a 1 -x {1.0 0.0 18 ------- null}
h -t 0.306784 -s 1 -d 0 -p ack -e 40 -c 1 -i 49 -a 1 -x {1.0 0.0 -1 ------- null}
r -t 0.308016 -s 0 -d 1 -p tcp -e 1540 -c 1 -i 34 -a 1 -x {0.0 1.0 19 ------- null}
+ -t 0.308016 -s 1 -d 0 -p ack -e 40 -c 1 -i 50 -a 1 -x {1.0 0.0 19 ------- null}
- -t 0.308016 -s 1 -d 0 -p ack -e 40 -c 1 -i 50 -a 1 -x {1.0 0.0 19 ------- null}
h -t 0.308016 -s 1 -d 0 -p ack -e 40 -c 1 -i 50 -a 1 -x {1.0 0.0 -1 ------- null}
r -t 0.309248 -s 0 -d 1 -p tcp -e 1540 -c 1 -i 35 -a 1 -x {0.0 1.0 20 ------- null}
+ -t 0.309248 -s 1 -d 0 -p ack -e 40 -c 1 -i 51 -a 1 -x {1.0 0.0 20 ------- null}
- -t 0.309248 -s 1 -d 0 -p ack -e 40 -c 1 -i 51 -a 1 -x {1.0 0.0 20 ------- null}
h -t 0.309248 -s 1 -d 0 -p ack -e 40 -c 1 -i 51 -a 1 -x {1.0 0.0 -1 ------- null}
r -t 0.31048 -s 0 -d 1 -p tcp -e 1540 -c 1 -i 36 -a 1 -x {0.0 1.0 21 ------- null}
+ -t 0.31048 -s 1 -d 0 -p ack -e 40 -c 1 -i 52 -a 1 -x {1.0 0.0 21 ------- null}
- -t 0.31048 -s 1 -d 0 -p ack -e 40 -c 1 -i 52 -a 1 -x {1.0 0.0 21 ------- null}
h -t 0.31048 -s 1 -d 0 -p ack -e 40 -c 1 -i 52 -a 1 -x {1.0 0.0 -1 ------- null}
r -t 0.311712 -s 0 -d 1 -p tcp -e 1540 -c 1 -i 37 -a 1 -x {0.0 1.0 22 ------- null}
+ -t 0.311712 -s 1 -d 0 -p ack -e 40 -c 1 -i 53 -a 1 -x {1.0 0.0 22 ------- null}
- -t 0.311712 -s 1 -d 0 -p ack -e 40 -c 1 -i 53 -a 1 -x {1.0 0.0 22 ------- null}
h -t 0.311712 -s 1 -d 0 -p ack -e 40 -c 1 -i 53 -a 1 -x {1.0 0.0 -1 ------- null}
r -t 0.312944 -s 0 -d 1 -p tcp -e 1540 -c 1 -i 38 -a 1 -x {0.0 1.0 23 ------- null}
+ -t 0.312944 -s 1 -d 0 -p ack -e 40 -c 1 -i 54 -a 1 -x {1.0 0.0 23 ------- null}
- -t 0.312944 -s 1 -d 0 -p ack -e 40 -c 1 -i 54 -a 1 -x {1.0 0.0 23 ------- null}
h -t 0.312944 -s 1 -d 0 -p ack -e 40 -c 1 -i 54 -a 1 -x {1.0 0.0 -1 ------- null}
r -t 0.314176 -s 0 -d 1 -p tcp -e 1540 -c 1 -i 39 -a 1 -x {0.0 1.0 24 ------- null}
+ -t 0.314176 -s 1 -d 0 -p ack -e 40 -c 1 -i 55 -a 1 -x {1.0 0.0 24 ------- null}
- -t 0.314176 -s 1 -d 0 -p ack -e 40 -c 1 -i 55 -a 1 -x {1.0 0.0 24 ------- null}
h -t 0.314176 -s 1 -d 0 -p ack -e 40 -c 1 -i 55 -a 1 -x {1.0 0.0 -1 ------- null}
r -t 0.315408 -s 0 -d 1 -p tcp -e 1540 -c 1 -i 40 -a 1 -x {0.0 1.0 25 ------- null}
+ -t 0.315408 -s 1 -d 0 -p ack -e 40 -c 1 -i 56 -a 1 -x {1.0 0.0 25 ------- null}
- -t 0.315408 -s 1 -d 0 -p ack -e 40 -c 1 -i 56 -a 1 -x {1.0 0.0 25 ------- null}
h -t 0.315408 -s 1 -d 0 -p ack -e 40 -c 1 -i 56 -a 1 -x {1.0 0.0 -1 ------- null}
r -t 0.31664 -s 0 -d 1 -p tcp -e 1540 -c 1 -i 41 -a 1 -x {0.0 1.0 26 ------- null}
+ -t 0.31664 -s 1 -d 0 -p ack -e 40 -c 1 -i 57 -a 1 -x {1.0 0.0 26 ------- null}
- -t 0.31664 -s 1 -d 0 -p ack -e 40 -c 1 -i 57 -a 1 -x {1.0 0.0 26 ------- null}
h -t 0.31664 -s 1 -d 0 -p ack -e 40 -c 1 -i 57 -a 1 -x {1.0 0.0 -1 ------- null}
r -t 0.317872 -s 0 -d 1 -p tcp -e 1540 -c 1 -i 42 -a 1 -x {0.0 1.0 27 ------- null}
+ -t 0.317872 -s 1 -d 0 -p ack -e 40 -c 1 -i 58 -a 1 -x {1.0 0.0 27 ------- null}
- -t 0.317872 -s 1 -d 0 -p ack -e 40 -c 1 -i 58 -a 1 -x {1.0 0.0 27 ------- null}
h -t 0.317872 -s 1 -d 0 -p ack -e 40 -c 1 -i 58 -a 1 -x {1.0 0.0 -1 ------- null}
r -t 0.319104 -s 0 -d 1 -p tcp -e 1540 -c 1 -i 43 -a 1 -x {0.0 1.0 28 ------- null}
+ -t 0.319104 -s 1 -d 0 -p ack -e 40 -c 1 -i 59 -a 1 -x {1.0 0.0 28 ------- null}
- -t 0.319104 -s 1 -d 0 -p ack -e 40 -c 1 -i 59 -a 1 -x {1.0 0.0 28 ------- null}
h -t 0.319104 -s 1 -d 0 -p ack -e 40 -c 1 -i 59 -a 1 -x {1.0 0.0 -1 ------- null}
r -t 0.320336 -s 0 -d 1 -p tcp -e 1540 -c 1 -i 44 -a 1 -x {0.0 1.0 29 ------- null}
+ -t 0.320336 -s 1 -d 0 -p ack -e 40 -c 1 -i 60 -a 1 -x {1.0 0.0 29 ------- null}
- -t 0.320336 -s 1 -d 0 -p ack -e 40 -c 1 -i 60 -a 1 -x {1.0 0.0 29 ------- null}
h -t 0.320336 -s 1 -d 0 -p ack -e 40 -c 1 -i 60 -a 1 -x {1.0 0.0 -1 ------- null}
r -t 0.321568 -s 0 -d 1 -p tcp -e 1540 -c 1 -i 45 -a 1 -x {0.0 1.0 30 ------- null}
+ -t 0.321568 -s 1 -d 0 -p ack -e 40 -c 1 -i 61 -a 1 -x {1.0 0.0 30 ------- null}
- -t 0.321568 -s 1 -d 0 -p ack -e 40 -c 1 -i 61 -a 1 -x {1.0 0.0 30 ------- null}
h -t 0.321568 -s 1 -d 0 -p ack -e 40 -c 1 -i 61 -a 1 -x {1.0 0.0 -1 ------- null}
r -t 0.32512 -s 1 -d 0 -p ack -e 40 -c 1 -i 46 -a 1 -x {1.0 0.0 15 ------- null}
+ -t 0.32512 -s 0 -d 1 -p tcp -e 1540 -c 1 -i 62 -a 1 -x {0.0 1.0 31 ------- null}
- -t 0.32512 -s 0 -d 1 -p tcp -e 1540 -c 1 -i 62 -a 1 -x {0.0 1.0 31 ------- null}
h -t 0.32512 -s 0 -d 1 -p tcp -e 1540 -c 1 -i 62 -a 1 -x {0.0 1.0 -1 ------- null}
+ -t 0.32512 -s 0 -d 1 -p tcp -e 1540 -c 1 -i 63 -a 1 -x {0.0 1.0 32 ------- null}
r -t 0.326352 -s 1 -d 0 -p ack -e 40 -c 1 -i 47 -a 1 -x {1.0 0.0 16 ------- null}
+ -t 0.326352 -s 0 -d 1 -p tcp -e 1540 -c 1 -i 64 -a 1 -x {0.0 1.0 33 ------- null}
+ -t 0.326352 -s 0 -d 1 -p tcp -e 1540 -c 1 -i 65 -a 1 -x {0.0 1.0 34 ------- null}
- -t 0.326352 -s 0 -d 1 -p tcp -e 1540 -c 1 -i 63 -a 1 -x {0.0 1.0 32 ------- null}
h -t 0.326352 -s 0 -d 1 -p tcp -e 1540 -c 1 -i 63 -a 1 -x {0.0 1.0 -1 ------- null}
r -t 0.327584 -s 1 -d 0 -p ack -e 40 -c 1 -i 48 -a 1 -x {1.0 0.0 17 ------- null}
+ -t 0.327584 -s 0 -d 1 -p tcp -e 1540 -c 1 -i 66 -a 1 -x {0.0 1.0 35 ------- null}
+ -t 0.327584 -s 0 -d 1 -p tcp -e 1540 -c 1 -i 67 -a 1 -x {0.0 1.0 36 ------- null}
- -t 0.327584 -s 0 -d 1 -p tcp -e 1540 -c 1 -i 64 -a 1 -x {0.0 1.0 33 ------- null}
h -t 0.327584 -s 0 -d 1 -p tcp -e 1540 -c 1 -i 64 -a 1 -x {0.0 1.0 -1 ------- null}
r -t 0.328816 -s 1 -d 0 -p ack -e 40 -c 1 -i 49 -a 1 -x {1.0 0.0 18 ------- null}
+ -t 0.328816 -s 0 -d 1 -p tcp -e 1540 -c 1 -i 68 -a 1 -x {0.0 1.0 37 ------- null}
+ -t 0.328816 -s 0 -d 1 -p tcp -e 1540 -c 1 -i 69 -a 1 -x {0.0 1.0 38 ------- null}
- -t 0.328816 -s 0 -d 1 -p tcp -e 1540 -c 1 -i 65 -a 1 -x {0.0 1.0 34 ------- null}
h -t 0.328816 -s 0 -d 1 -p tcp -e 1540 -c 1 -i 65 -a 1 -x {0.0 1.0 -1 ------- null}
r -t 0.330048 -s 1 -d 0 -p ack -e 40 -c 1 -i 50 -a 1 -x {1.0 0.0 19 ------- null}
+ -t 0.330048 -s 0 -d 1 -p tcp -e 1540 -c 1 -i 70 -a 1 -x {0.0 1.0 39 ------- null}
- -t 0.330048 -s 0 -d 1 -p tcp -e 1540 -c 1 -i 66 -a 1 -x {0.0 1.0 35 ------- null}
h -t 0.330048 -s 0 -d 1 -p tcp -e 1540 -c 1 -i 66 -a 1 -x {0.0 1.0 -1 ------- null}
r -t 0.33128 -s 1 -d 0 -p ack -e 40 -c 1 -i 51 -a 1 -x {1.0 0.0 20 ------- null}
+ -t 0.33128 -s 0 -d 1 -p tcp -e 1540 -c 1 -i 71 -a 1 -x {0.0 1.0 40 ------- null}
- -t 0.33128 -s 0 -d 1 -p tcp -e 1540 -c 1 -i 67 -a 1 -x {0.0 1.0 36 ------- null}
h -t 0.33128 -s 0 -d 1 -p tcp -e 1540 -c 1 -i 67 -a 1 -x {0.0 1.0 -1 ------- null}
r -t 0.332512 -s 1 -d 0 -p ack -e 40 -c 1 -i 52 -a 1 -x {1.0 0.0 21 ------- null}
+ -t 0.332512 -s 0 -d 1 -p tcp -e 1540 -c 1 -i 72 -a 1 -x {0.0 1.0 41 ------- null}
- -t 0.332512 -s 0 -d 1 -p tcp -e 1540 -c 1 -i 68 -a 1 -x {0.0 1.0 37 ------- null}
h -t 0.332512 -s 0 -d 1 -p tcp -e 1540 -c 1 -i 68 -a 1 -x {0.0 1.0 -1 ------- null}
r -t 0.333744 -s 1 -d 0 -p ack -e 40 -c 1 -i 53 -a 1 -x {1.0 0.0 22 ------- null}
+ -t 0.333744 -s 0 -d 1 -p tcp -e 1540 -c 1 -i 73 -a 1 -x {0.0 1.0 42 ------- null}
- -t 0.333744 -s 0 -d 1 -p tcp -e 1540 -c 1 -i 69 -a 1 -x {0.0 1.0 38 ------- null}
h -t 0.333744 -s 0 -d 1 -p tcp -e 1540 -c 1 -i 69 -a 1 -x {0.0 1.0 -1 ------- null}
r -t 0.334976 -s 1 -d 0 -p ack -e 40 -c 1 -i 54 -a 1 -x {1.0 0.0 23 ------- null}
+ -t 0.334976 -s 0 -d 1 -p tcp -e 1540 -c 1 -i 74 -a 1 -x {0.0 1.0 43 ------- null}
- -t 0.334976 -s 0 -d 1 -p tcp -e 1540 -c 1 -i 70 -a 1 -x {0.0 1.0 39 ------- null}
h -t 0.334976 -s 0 -d 1 -p tcp -e 1540 -c 1 -i 70 -a 1 -x {0.0 1.0 -1 ------- null}
r -t 0.336208 -s 1 -d 0 -p ack -e 40 -c 1 -i 55 -a 1 -x {1.0 0.0 24 ------- null}
+ -t 0.336208 -s 0 -d 1 -p tcp -e 1540 -c 1 -i 75 -a 1 -x {0.0 1.0 44 ------- null}
- -t 0.336208 -s 0 -d 1 -p tcp -e 1540 -c 1 -i 71 -a 1 -x {0.0 1.0 40 ------- null}
h -t 0.336208 -s 0 -d 1 -p tcp -e 1540 -c 1 -i 71 -a 1 -x {0.0 1.0 -1 ------- null}
r -t 0.33744 -s 1 -d 0 -p ack -e 40 -c 1 -i 56 -a 1 -x {1.0 0.0 25 ------- null}
+ -t 0.33744 -s 0 -d 1 -p tcp -e 1540 -c 1 -i 76 -a 1 -x {0.0 1.0 45 ------- null}
- -t 0.33744 -s 0 -d 1 -p tcp -e 1540 -c 1 -i 72 -a 1 -x {0.0 1.0 41 ------- null}
h -t 0.33744 -s 0 -d 1 -p tcp -e 1540 -c 1 -i 72 -a 1 -x {0.0 1.0 -1 ------- null}
r -t 0.338672 -s 1 -d 0 -p ack -e 40 -c 1 -i 57 -a 1 -x {1.0 0.0 26 ------- null}
+ -t 0.338672 -s 0 -d 1 -p tcp -e 1540 -c 1 -i 77 -a 1 -x {0.0 1.0 46 ------- null}
- -t 0.338672 -s 0 -d 1 -p tcp -e 1540 -c 1 -i 73 -a 1 -x {0.0 1.0 42 ------- null}
h -t 0.338672 -s 0 -d 1 -p tcp -e 1540 -c 1 -i 73 -a 1 -x {0.0 1.0 -1 ------- null}
r -t 0.339904 -s 1 -d 0 -p ack -e 40 -c 1 -i 58 -a 1 -x {1.0 0.0 27 ------- null}
+ -t 0.339904 -s 0 -d 1 -p tcp -e 1540 -c 1 -i 78 -a 1 -x {0.0 1.0 47 ------- null}
- -t 0.339904 -s 0 -d 1 -p tcp -e 1540 -c 1 -i 74 -a 1 -x {0.0 1.0 43 ------- null}
h -t 0.339904 -s 0 -d 1 -p tcp -e 1540 -c 1 -i 74 -a 1 -x {0.0 1.0 -1 ------- null}
r -t 0.341136 -s 1 -d 0 -p ack -e 40 -c 1 -i 59 -a 1 -x {1.0 0.0 28 ------- null}
+ -t 0.341136 -s 0 -d 1 -p tcp -e 1540 -c 1 -i 79 -a 1 -x {0.0 1.0 48 ------- null}
- -t 0.341136 -s 0 -d 1 -p tcp -e 1540 -c 1 -i 75 -a 1 -x {0.0 1.0 44 ------- null}
h -t 0.341136 -s 0 -d 1 -p tcp -e 1540 -c 1 -i 75 -a 1 -x {0.0 1.0 -1 ------- null}
r -t 0.342368 -s 1 -d 0 -p ack -e 40 -c 1 -i 60 -a 1 -x {1.0 0.0 29 ------- null}
+ -t 0.342368 -s 0 -d 1 -p tcp -e 1540 -c 1 -i 80 -a 1 -x {0.0 1.0 49 ------- null}
- -t 0.342368 -s 0 -d 1 -p tcp -e 1540 -c 1 -i 76 -a 1 -x {0.0 1.0 45 ------- null}
h -t 0.342368 -s 0 -d 1 -p tcp -e 1540 -c 1 -i 76 -a 1 -x {0.0 1.0 -1 ------- null}
r -t 0.3436 -s 1 -d 0 -p ack -e 40 -c 1 -i 61 -a 1 -x {1.0 0.0 30 ------- null}
+ -t 0.3436 -s 0 -d 1 -p tcp -e 1540 -c 1 -i 81 -a 1 -x {0.0 1.0 50 ------- null}
- -t 0.3436 -s 0 -d 1 -p tcp -e 1540 -c 1 -i 77 -a 1 -x {0.0 1.0 46 ------- null}
h -t 0.3436 -s 0 -d 1 -p tcp -e 1540 -c 1 -i 77 -a 1 -x {0.0 1.0 -1 ------- null}
- -t 0.344832 -s 0 -d 1 -p tcp -e 1540 -c 1 -i 78 -a 1 -x {0.0 1.0 47 ------- null}
h -t 0.344832 -s 0 -d 1 -p tcp -e 1540 -c 1 -i 78 -a 1 -x {0.0 1.0 -1 ------- null}
- -t 0.346064 -s 0 -d 1 -p tcp -e 1540 -c 1 -i 79 -a 1 -x {0.0 1.0 48 ------- null}
h -t 0.346064 -s 0 -d 1 -p tcp -e 1540 -c 1 -i 79 -a 1 -x {0.0 1.0 -1 ------- null}
- -t 0.347296 -s 0 -d 1 -p tcp -e 1540 -c 1 -i 80 -a 1 -x {0.0 1.0 49 ------- null}
h -t 0.347296 -s 0 -d 1 -p tcp -e 1540 -c 1 -i 80 -a 1 -x {0.0 1.0 -1 ------- null}
r -t 0.348352 -s 0 -d 1 -p tcp -e 1540 -c 1 -i 62 -a 1 -x {0.0 1.0 31 ------- null}
+ -t 0.348352 -s 1 -d 0 -p ack -e 40 -c 1 -i 82 -a 1 -x {1.0 0.0 31 ------- null}
- -t 0.348352 -s 1 -d 0 -p ack -e 40 -c 1 -i 82 -a 1 -x {1.0 0.0 31 ------- null}
h -t 0.348352 -s 1 -d 0 -p ack -e 40 -c 1 -i 82 -a 1 -x {1.0 0.0 -1 ------- null}
- -t 0.348528 -s 0 -d 1 -p tcp -e 1540 -c 1 -i 81 -a 1 -x {0.0 1.0 50 ------- null}
h -t 0.348528 -s 0 -d 1 -p tcp -e 1540 -c 1 -i 81 -a 1 -x {0.0 1.0 -1 ------- null}
r -t 0.349584 -s 0 -d 1 -p tcp -e 1540 -c 1 -i 63 -a 1 -x {0.0 1.0 32 ------- null}
+ -t 0.349584 -s 1 -d 0 -p ack -e 40 -c 1 -i 83 -a 1 -x {1.0 0.0 32 ------- null}
- -t 0.349584 -s 1 -d 0 -p ack -e 40 -c 1 -i 83 -a 1 -x {1.0 0.0 32 ------- null}
h -t 0.349584 -s 1 -d 0 -p ack -e 40 -c 1 -i 83 -a 1 -x {1.0 0.0 -1 ------- null}
r -t 0.350816 -s 0 -d 1 -p tcp -e 1540 -c 1 -i 64 -a 1 -x {0.0 1.0 33 ------- null}
+ -t 0.350816 -s 1 -d 0 -p ack -e 40 -c 1 -i 84 -a 1 -x {1.0 0.0 33 ------- null}
- -t 0.350816 -s 1 -d 0 -p ack -e 40 -c 1 -i 84 -a 1 -x {1.0 0.0 33 ------- null}
h -t 0.350816 -s 1 -d 0 -p ack -e 40 -c 1 -i 84 -a 1 -x {1.0 0.0 -1 ------- null}
r -t 0.352048 -s 0 -d 1 -p tcp -e 1540 -c 1 -i 65 -a 1 -x {0.0 1.0 34 ------- null}
+ -t 0.352048 -s 1 -d 0 -p ack -e 40 -c 1 -i 85 -a 1 -x {1.0 0.0 34 ------- null}
- -t 0.352048 -s 1 -d 0 -p ack -e 40 -c 1 -i 85 -a 1 -x {1.0 0.0 34 ------- null}
h -t 0.352048 -s 1 -d 0 -p ack -e 40 -c 1 -i 85 -a 1 -x {1.0 0.0 -1 ------- null}
r -t 0.35328 -s 0 -d 1 -p tcp -e 1540 -c 1 -i 66 -a 1 -x {0.0 1.0 35 ------- null}
+ -t 0.35328 -s 1 -d 0 -p ack -e 40 -c 1 -i 86 -a 1 -x {1.0 0.0 35 ------- null}
- -t 0.35328 -s 1 -d 0 -p ack -e 40 -c 1 -i 86 -a 1 -x {1.0 0.0 35 ------- null}
h -t 0.35328 -s 1 -d 0 -p ack -e 40 -c 1 -i 86 -a 1 -x {1.0 0.0 -1 ------- null}
r -t 0.354512 -s 0 -d 1 -p tcp -e 1540 -c 1 -i 67 -a 1 -x {0.0 1.0 36 ------- null}
+ -t 0.354512 -s 1 -d 0 -p ack -e 40 -c 1 -i 87 -a 1 -x {1.0 0.0 36 ------- null}
- -t 0.354512 -s 1 -d 0 -p ack -e 40 -c 1 -i 87 -a 1 -x {1.0 0.0 36 ------- null}
h -t 0.354512 -s 1 -d 0 -p ack -e 40 -c 1 -i 87 -a 1 -x {1.0 0.0 -1 ------- null}
r -t 0.355744 -s 0 -d 1 -p tcp -e 1540 -c 1 -i 68 -a 1 -x {0.0 1.0 37 ------- null}
+ -t 0.355744 -s 1 -d 0 -p ack -e 40 -c 1 -i 88 -a 1 -x {1.0 0.0 37 ------- null}
- -t 0.355744 -s 1 -d 0 -p ack -e 40 -c 1 -i 88 -a 1 -x {1.0 0.0 37 ------- null}
h -t 0.355744 -s 1 -d 0 -p ack -e 40 -c 1 -i 88 -a 1 -x {1.0 0.0 -1 ------- null}
r -t 0.356976 -s 0 -d 1 -p tcp -e 1540 -c 1 -i 69 -a 1 -x {0.0 1.0 38 ------- null}
+ -t 0.356976 -s 1 -d 0 -p ack -e 40 -c 1 -i 89 -a 1 -x {1.0 0.0 38 ------- null}
- -t 0.356976 -s 1 -d 0 -p ack -e 40 -c 1 -i 89 -a 1 -x {1.0 0.0 38 ------- null}
h -t 0.356976 -s 1 -d 0 -p ack -e 40 -c 1 -i 89 -a 1 -x {1.0 0.0 -1 ------- null}
r -t 0.358208 -s 0 -d 1 -p tcp -e 1540 -c 1 -i 70 -a 1 -x {0.0 1.0 39 ------- null}
+ -t 0.358208 -s 1 -d 0 -p ack -e 40 -c 1 -i 90 -a 1 -x {1.0 0.0 39 ------- null}
- -t 0.358208 -s 1 -d 0 -p ack -e 40 -c 1 -i 90 -a 1 -x {1.0 0.0 39 ------- null}
h -t 0.358208 -s 1 -d 0 -p ack -e 40 -c 1 -i 90 -a 1 -x {1.0 0.0 -1 ------- null}
r -t 0.35944 -s 0 -d 1 -p tcp -e 1540 -c 1 -i 71 -a 1 -x {0.0 1.0 40 ------- null}
+ -t 0.35944 -s 1 -d 0 -p ack -e 40 -c 1 -i 91 -a 1 -x {1.0 0.0 40 ------- null}
- -t 0.35944 -s 1 -d 0 -p ack -e 40 -c 1 -i 91 -a 1 -x {1.0 0.0 40 ------- null}
h -t 0.35944 -s 1 -d 0 -p ack -e 40 -c 1 -i 91 -a 1 -x {1.0 0.0 -1 ------- null}
r -t 0.360672 -s 0 -d 1 -p tcp -e 1540 -c 1 -i 72 -a 1 -x {0.0 1.0 41 ------- null}
+ -t 0.360672 -s 1 -d 0 -p ack -e 40 -c 1 -i 92 -a 1 -x {1.0 0.0 41 ------- null}
- -t 0.360672 -s 1 -d 0 -p ack -e 40 -c 1 -i 92 -a 1 -x {1.0 0.0 41 ------- null}
h -t 0.360672 -s 1 -d 0 -p ack -e 40 -c 1 -i 92 -a 1 -x {1.0 0.0 -1 ------- null}
r -t 0.361904 -s 0 -d 1 -p tcp -e 1540 -c 1 -i 73 -a 1 -x {0.0 1.0 42 ------- null}
+ -t 0.361904 -s 1 -d 0 -p ack -e 40 -c 1 -i 93 -a 1 -x {1.0 0.0 42 ------- null}
- -t 0.361904 -s 1 -d 0 -p ack -e 40 -c 1 -i 93 -a 1 -x {1.0 0.0 42 ------- null}
h -t 0.361904 -s 1 -d 0 -p ack -e 40 -c 1 -i 93 -a 1 -x {1.0 0.0 -1 ------- null}
r -t 0.363136 -s 0 -d 1 -p tcp -e 1540 -c 1 -i 74 -a 1 -x {0.0 1.0 43 ------- null}
+ -t 0.363136 -s 1 -d 0 -p ack -e 40 -c 1 -i 94 -a 1 -x {1.0 0.0 43 ------- null}